<event>
 5    1  0.1096978E-009  0.9118800E+02  0.7818608E-02  0.1130116E+00
         25   -1    0    0    0    0  0.00000000000E+00  0.00000000000E+00  0.99999998245E-14  0.12500000000E+03  0.12500000000E+03 0.  0.
        -11    1    3    3    0    0 -0.23414976733E+01  0.48766085681E+02  0.17478228034E+01  0.48853542439E+02  0.51100000000E-03 0.  1.
         23    2    1    0    0    0 -0.25319970027E+02  0.44985233762E+01  0.48666439522E+01  0.98827078533E+02  0.95298319153E+02 0.  0.
         11    1    3    3    0    0 -0.22978472354E+02 -0.44267562305E+02  0.31188211488E+01  0.49973536094E+02  0.51100000000E-03 0. -1.
         22    1    1    0    0    0  0.25319970027E+02 -0.44985233762E+01 -0.48666439522E+01  0.26172921467E+02  0.00000000000E+00 0. -1.
</event>
<event>
 5    1  0.1096978E-009  0.9118800E+02  0.7818608E-02  0.1130116E+00
         25   -1    0    0    0    0  0.00000000000E+00  0.00000000000E+00  0.99999998245E-14  0.12500000000E+03  0.12500000000E+03 0.  0.
        -11    1    3    3    0    0  0.46792802793E+01  0.44270751250E+02  0.17367359993E+02  0.47785146997E+02  0.51100000000E-03 0.  1.
         23    2    1    0    0    0 -0.19502625296E+02  0.42214169464E+01  0.22589461916E+02  0.94859387131E+02  0.89943575550E+02 0.  0.
         11    1    3    3    0    0 -0.24181905575E+02 -0.40049334303E+02  0.52221019229E+01  0.47074240133E+02  0.51100000000E-03 0. -1.
         22    1    1    0    0    0  0.19502625296E+02 -0.42214169464E+01 -0.22589461916E+02  0.30140612869E+02  0.00000000000E+00 0. -1.
</event>
<event>
 5    1  0.1096978E-009  0.9118800E+02  0.7818608E-02  0.1130116E+00
         25   -1    0    0    0    0  0.00000000000E+00  0.00000000000E+00  0.99999998245E-14  0.12500000000E+03  0.12500000000E+03 0.  0.
        -11    1    3    3    0    0  0.34270525132E+01  0.43236547587E+02  0.33734027831E+02  0.54946595619E+02  0.51100000000E-03 0. -1.
         23    2    1    0    0    0 -0.14645159262E+02  0.24340936231E+02  0.13603099487E+01  0.96560374307E+02  0.92277264680E+02 0.  0.
         11    1    3    3    0    0 -0.18072211775E+02 -0.18895611356E+02 -0.32373717882E+02  0.41613778688E+02  0.51100000000E-03 0.  1.
         22    1    1    0    0    0  0.14645159262E+02 -0.24340936231E+02 -0.13603099487E+01  0.28439625693E+02  0.00000000000E+00 0. -1.
</event>
<event>
 5    1  0.1096978E-009  0.9118800E+02  0.7818608E-02  0.1130116E+00
         25   -1    0    0    0    0  0.00000000000E+00  0.00000000000E+00  0.99999998245E-14  0.12500000000E+03  0.12500000000E+03 0.  0.
        -11    1    3    3    0    0  0.25632832311E+02 -0.22407592632E+02 -0.37337214468E+02  0.50529297287E+02  0.51100000000E-03 0.  1.
         23    2    1    0    0    0  0.24744126626E+02 -0.14287187129E+02  0.69751234893E+01  0.95588303922E+02  0.90950953708E+02 0.  0.
         11    1    3    3    0    0 -0.88870568542E+00  0.81204055029E+01  0.44312337958E+02  0.45059006634E+02  0.51100000000E-03 0. -1.
         22    1    1    0    0    0 -0.24744126626E+02  0.14287187129E+02 -0.69751234893E+01  0.29411696078E+02  0.00000000000E+00 0.  1.
</event>
<event>
 5    1  0.1096978E-009  0.9118800E+02  0.7818608E-02  0.1130116E+00
         25   -1    0    0    0    0  0.00000000000E+00  0.00000000000E+00  0.99999998245E-14  0.12500000000E+03  0.12500000000E+03 0.  0.
        -11    1    3    3    0    0 -0.35090671995E+02  0.27584495438E+02 -0.38222506397E+02  0.58764101671E+02  0.51100000000E-03 0.  1.
         23    2    1    0    0    0 -0.73718193030E+01  0.56322109924E+01 -0.27898923063E+02  0.95599057352E+02  0.90965731669E+02 0.  0.
         11    1    3    3    0    0  0.27718852692E+02 -0.21952284445E+02  0.10323583334E+02  0.36834955681E+02  0.51100000000E-03 0. -1.
         22    1    1    0    0    0  0.73718193030E+01 -0.56322109924E+01  0.27898923063E+02  0.29400942648E+02  0.00000000000E+00 0.  1.
</event>
<event>
 5    1  0.1096978E-009  0.9118800E+02  0.7818608E-02  0.1130116E+00
         25   -1    0    0    0    0  0.00000000000E+00  0.00000000000E+00  0.99999998245E-14  0.12500000000E+03  0.12500000000E+03 0.  0.
        -11    1    3    3    0    0 -0.11093785595E+02  0.97726554367E-01  0.51442717062E+02  0.52625419412E+02  0.51100000000E-03 0. -1.
         23    2    1    0    0    0  0.94443796817E+01  0.20062418055E+02  0.20301609466E+02  0.94935864013E+02  0.90049797352E+02 0.  0.
         11    1    3    3    0    0  0.20538165277E+02  0.19964691501E+02 -0.31141107597E+02  0.42310444600E+02  0.51100000000E-03 0.  1.
         22    1    1    0    0    0 -0.94443796817E+01 -0.20062418055E+02 -0.20301609466E+02  0.30064135987E+02  0.00000000000E+00 0. -1.
</event>
<event>
 5    1  0.1096978E-009  0.9118800E+02  0.7818608E-02  0.1130116E+00
         25   -1    0    0    0    0  0.00000000000E+00  0.00000000000E+00  0.99999998245E-14  0.12500000000E+03  0.12500000000E+03 0.  0.
        -11    1    3    3    0    0  0.18870590155E+02 -0.11756714761E+02  0.30098093041E+02  0.37419443071E+02  0.51100000000E-03 0.  1.
         23    2    1    0    0    0  0.10026188277E+02 -0.94473871271E+01 -0.26703828712E+02  0.94952170748E+02  0.90072430227E+02 0.  0.
         11    1    3    3    0    0 -0.88444018784E+01  0.23093276340E+01 -0.56801921754E+02  0.57532727676E+02  0.51100000000E-03 0. -1.
         22    1    1    0    0    0 -0.10026188277E+02  0.94473871271E+01  0.26703828712E+02  0.30047829252E+02  0.00000000000E+00 0. -1.
</event>
<event>
 5    1  0.1096978E-009  0.9118800E+02  0.7818608E-02  0.1130116E+00
         25   -1    0    0    0    0  0.00000000000E+00  0.00000000000E+00  0.99999998245E-14  0.12500000000E+03  0.12500000000E+03 0.  0.
        -11    1    3    3    0    0 -0.23181405742E+02  0.12523491087E+02  0.33836055211E+02  0.42884659655E+02  0.51100000000E-03 0. -1.
         23    2    1    0    0    0  0.19084530458E+02  0.21693968665E+02  0.31058932927E+01  0.95939818439E+02  0.91432787389E+02 0.  0.
         11    1    3    3    0    0  0.42265936200E+02  0.91704775778E+01 -0.30730161918E+02  0.53055158784E+02  0.51100000000E-03 0.  1.
         22    1    1    0    0    0 -0.19084530458E+02 -0.21693968665E+02 -0.31058932927E+01  0.29060181561E+02  0.00000000000E+00 0.  1.
</event>
<event>
 5    1  0.1096978E-009  0.9118800E+02  0.7818608E-02  0.1130116E+00
         25   -1    0    0    0    0  0.00000000000E+00  0.00000000000E+00  0.99999998245E-14  0.12500000000E+03  0.12500000000E+03 0.  0.
        -11    1    3    3    0    0  0.41557721557E+02 -0.26777345113E+02  0.36638397945E+02  0.61534077035E+02  0.51100000000E-03 0. -1.
         23    2    1    0    0    0  0.24857448042E+02 -0.11934417131E+02  0.11618376233E+02  0.95078273751E+02  0.90247262772E+02 0.  0.
         11    1    3    3    0    0 -0.16700273515E+02  0.14842927983E+02 -0.25020021712E+02  0.33544196716E+02  0.51100000000E-03 0.  1.
         22    1    1    0    0    0 -0.24857448042E+02  0.11934417131E+02 -0.11618376233E+02  0.29921726249E+02  0.00000000000E+00 0. -1.
</event>
<event>
 5    1  0.1096978E-009  0.9118800E+02  0.7818608E-02  0.1130116E+00
         25   -1    0    0    0    0  0.00000000000E+00  0.00000000000E+00  0.99999998245E-14  0.12500000000E+03  0.12500000000E+03 0.  0.
        -11    1    3    3    0    0 -0.25528346371E+01 -0.37387032779E+02 -0.32294700141E+02  0.49469736629E+02  0.51100000000E-03 0. -1.
         23    2    1    0    0    0 -0.15000177730E+02 -0.23870622902E+02  0.96008932052E+01  0.95217637434E+02  0.90440087122E+02 0.  0.
         11    1    3    3    0    0 -0.12447343093E+02  0.13516409877E+02  0.41895593346E+02  0.45747900805E+02  0.51100000000E-03 0.  1.
         22    1    1    0    0    0  0.15000177730E+02  0.23870622902E+02 -0.96008932052E+01  0.29782362566E+02  0.00000000000E+00 0. -1.
</event>
<event>
 5    1  0.1096978E-009  0.9118800E+02  0.7818608E-02  0.1130116E+00
         25   -1    0    0    0    0  0.00000000000E+00  0.00000000000E+00  0.99999998245E-14  0.12500000000E+03  0.12500000000E+03 0.  0.
        -11    1    3    3    0    0  0.32496541782E+02 -0.45200703148E+02  0.24280688380E+02  0.60734509312E+02  0.51100000000E-03 0. -1.
         23    2    1    0    0    0  0.79801462662E+01 -0.25328714375E+02  0.18017336455E+02  0.92908709605E+02  0.87190466229E+02 0.  0.
         11    1    3    3    0    0 -0.24516395516E+02  0.19871988773E+02 -0.62633519254E+01  0.32174200293E+02  0.51100000000E-03 0.  1.
         22    1    1    0    0    0 -0.79801462662E+01  0.25328714375E+02 -0.18017336455E+02  0.32091290395E+02  0.00000000000E+00 0. -1.
</event>
<event>
 5    1  0.1096978E-009  0.9118800E+02  0.7818608E-02  0.1130116E+00
         25   -1    0    0    0    0  0.00000000000E+00  0.00000000000E+00  0.99999998245E-14  0.12500000000E+03  0.12500000000E+03 0.  0.
        -11    1    3    3    0    0  0.16979575542E+02 -0.26566024529E+02  0.17830000044E+02  0.36221106370E+02  0.51100000000E-03 0. -1.
         23    2    1    0    0    0 -0.48950080848E+00  0.28788249171E+02  0.82253067211E+01  0.95055742253E+02  0.90216049366E+02 0.  0.
         11    1    3    3    0    0 -0.17469076351E+02  0.55354273700E+02 -0.96046933230E+01  0.58834635883E+02  0.51100000000E-03 0.  1.
         22    1    1    0    0    0  0.48950080848E+00 -0.28788249171E+02 -0.82253067211E+01  0.29944257747E+02  0.00000000000E+00 0.  1.
</event>
<event>
 5    1  0.1096978E-009  0.9118800E+02  0.7818608E-02  0.1130116E+00
         25   -1    0    0    0    0  0.00000000000E+00  0.00000000000E+00  0.99999998245E-14  0.12500000000E+03  0.12500000000E+03 0.  0.
        -11    1    3    3    0    0  0.18948467856E+02 -0.42032888232E+02 -0.36702620604E+02  0.58931235238E+02  0.51100000000E-03 0. -1.
         23    2    1    0    0    0  0.17114385821E+02 -0.91502875138E+01 -0.23771517492E+02  0.94312624624E+02  0.89180469588E+02 0.  0.
         11    1    3    3    0    0 -0.18340820345E+01  0.32882600718E+02  0.12931103112E+02  0.35381389386E+02  0.51100000000E-03 0.  1.
         22    1    1    0    0    0 -0.17114385821E+02  0.91502875138E+01  0.23771517492E+02  0.30687375376E+02  0.00000000000E+00 0. -1.
</event>
<event>
 5    1  0.1096978E-009  0.9118800E+02  0.7818608E-02  0.1130116E+00
         25   -1    0    0    0    0  0.00000000000E+00  0.00000000000E+00  0.99999998245E-14  0.12500000000E+03  0.12500000000E+03 0.  0.
        -11    1    3    3    0    0 -0.30478311666E+02  0.17791172929E+02  0.47275752469E+01  0.35606225357E+02  0.51100000000E-03 0.  1.
         23    2    1    0    0    0  0.13572394384E+02 -0.24223576151E+02  0.64061441458E+01  0.96503856161E+02  0.92200672667E+02 0.  0.
         11    1    3    3    0    0  0.44050706050E+02 -0.42014749080E+02  0.16785688989E+01  0.60897630804E+02  0.51100000000E-03 0. -1.
         22    1    1    0    0    0 -0.13572394384E+02  0.24223576151E+02 -0.64061441458E+01  0.28496143839E+02  0.00000000000E+00 0. -1.
</event>
<event>
 5    1  0.1096978E-009  0.9118800E+02  0.7818608E-02  0.1130116E+00
         25   -1    0    0    0    0  0.00000000000E+00  0.00000000000E+00  0.99999998245E-14  0.12500000000E+03  0.12500000000E+03 0.  0.
        -11    1    3    3    0    0 -0.61319170139E+01 -0.42262638814E+02  0.56690908712E+01  0.43079805447E+02  0.51100000000E-03 0. -1.
         23    2    1    0    0    0 -0.24606981560E+02  0.44060632520E+01 -0.13234955221E+02  0.96714297347E+02  0.92485535824E+02 0.  0.
         11    1    3    3    0    0 -0.18475064546E+02  0.46668702066E+02 -0.18904046092E+02  0.53634491900E+02  0.51100000000E-03 0.  1.
         22    1    1    0    0    0  0.24606981560E+02 -0.44060632520E+01  0.13234955221E+02  0.28285702653E+02  0.00000000000E+00 0.  1.
</event>
<event>
 5    1  0.1096978E-009  0.9118800E+02  0.7818608E-02  0.1130116E+00
         25   -1    0    0    0    0  0.00000000000E+00  0.00000000000E+00  0.99999998245E-14  0.12500000000E+03  0.12500000000E+03 0.  0.
        -11    1    3    3    0    0  0.23674075004E+02  0.96231749294E+01  0.45511191594E+02  0.52195171075E+02  0.51100000000E-03 0.  1.
         23    2    1    0    0    0 -0.14636495604E+02  0.30216897259E+01  0.24277030632E+02  0.96491548118E+02  0.92183984670E+02 0.  0.
         11    1    3    3    0    0 -0.38310570608E+02 -0.66014852035E+01 -0.21234160961E+02  0.44296377043E+02  0.51100000000E-03 0. -1.
         22    1    1    0    0    0  0.14636495604E+02 -0.30216897259E+01 -0.24277030632E+02  0.28508451882E+02  0.00000000000E+00 0.  1.
</event>
<event>
 5    1  0.1096978E-009  0.9118800E+02  0.7818608E-02  0.1130116E+00
         25   -1    0    0    0    0  0.00000000000E+00  0.00000000000E+00  0.99999998245E-14  0.12500000000E+03  0.12500000000E+03 0.  0.
        -11    1    3    3    0    0 -0.25701656036E+02  0.28825680568E+02 -0.29906487066E+02  0.48845603201E+02  0.51100000000E-03 0.  1.
         23    2    1    0    0    0  0.16292566601E+02  0.21780401636E+02 -0.85117472616E+01  0.96499412930E+02  0.92194648611E+02 0.  0.
         11    1    3    3    0    0  0.41994222637E+02 -0.70452789318E+01  0.21394739804E+02  0.47653809729E+02  0.51100000000E-03 0. -1.
         22    1    1    0    0    0 -0.16292566601E+02 -0.21780401636E+02  0.85117472616E+01  0.28500587070E+02  0.00000000000E+00 0. -1.
</event>
<event>
 5    1  0.1096978E-009  0.9118800E+02  0.7818608E-02  0.1130116E+00
         25   -1    0    0    0    0  0.00000000000E+00  0.00000000000E+00  0.99999998245E-14  0.12500000000E+03  0.12500000000E+03 0.  0.
        -11    1    3    3    0    0  0.20783043750E+02 -0.20359452079E+02  0.21393303747E+02  0.36112541339E+02  0.51100000000E-03 0. -1.
         23    2    1    0    0    0 -0.98731789228E+00  0.13695626771E+01 -0.29431501182E+02  0.95520112612E+02  0.90857185479E+02 0.  0.
         11    1    3    3    0    0 -0.21770361642E+02  0.21729014756E+02 -0.50824804929E+02  0.59407571274E+02  0.51100000000E-03 0.  1.
         22    1    1    0    0    0  0.98731789228E+00 -0.13695626771E+01  0.29431501182E+02  0.29479887388E+02  0.00000000000E+00 0.  1.
</event>
<event>
 5    1  0.1096978E-009  0.9118800E+02  0.7818608E-02  0.1130116E+00
         25   -1    0    0    0    0  0.00000000000E+00  0.00000000000E+00  0.99999998245E-14  0.12500000000E+03  0.12500000000E+03 0.  0.
        -11    1    3    3    0    0 -0.47397846714E+02  0.38061055744E+02 -0.12077145061E+02  0.61976263768E+02  0.51100000000E-03 0. -1.
         23    2    1    0    0    0 -0.19193541535E+02  0.22175866100E+02 -0.79846234923E+01  0.94604025164E+02  0.89587980729E+02 0.  0.
         11    1    3    3    0    0  0.28204305179E+02 -0.15885189645E+02  0.40925215691E+01  0.32627761397E+02  0.51100000000E-03 0.  1.
         22    1    1    0    0    0  0.19193541535E+02 -0.22175866100E+02  0.79846234923E+01  0.30395974836E+02  0.00000000000E+00 0. -1.
</event>
<event>
 5    1  0.1096978E-009  0.9118800E+02  0.7818608E-02  0.1130116E+00
         25   -1    0    0    0    0  0.00000000000E+00  0.00000000000E+00  0.99999998245E-14  0.12500000000E+03  0.12500000000E+03 0.  0.
        -11    1    3    3    0    0  0.24394108823E+02 -0.56201429692E+01 -0.19893437942E+02  0.31975106343E+02  0.51100000000E-03 0. -1.
         23    2    1    0    0    0 -0.17799965106E+02  0.16728411130E+02  0.19395762975E+02  0.93809069939E+02  0.88471845718E+02 0.  0.
         11    1    3    3    0    0 -0.42194073928E+02  0.22348554099E+02  0.39289200917E+02  0.61833963596E+02  0.51100000000E-03 0.  1.
         22    1    1    0    0    0  0.17799965106E+02 -0.16728411130E+02 -0.19395762975E+02  0.31190930061E+02  0.00000000000E+00 0.  1.
</event>
<event>
 5    1  0.1096978E-009  0.9118800E+02  0.7818608E-02  0.1130116E+00
         25   -1    0    0    0    0  0.00000000000E+00  0.00000000000E+00  0.99999998245E-14  0.12500000000E+03  0.12500000000E+03 0.  0.
        -11    1    3    3    0    0 -0.78424540842E+00 -0.53695178366E+02 -0.27405343315E+02  0.60289634790E+02  0.51100000000E-03 0.  1.
         23    2    1    0    0    0 -0.95998165957E+01 -0.24909282374E+02 -0.20916368186E+02  0.91086532393E+02  0.84537761374E+02 0.  0.
         11    1    3    3    0    0 -0.88155711873E+01  0.28785895992E+02  0.64889751294E+01  0.30796897602E+02  0.51100000000E-03 0. -1.
         22    1    1    0    0    0  0.95998165957E+01  0.24909282374E+02  0.20916368186E+02  0.33913467607E+02  0.00000000000E+00 0.  1.
</event>
<event>
 5    1  0.1096978E-009  0.9118800E+02  0.7818608E-02  0.1130116E+00
         25   -1    0    0    0    0  0.00000000000E+00  0.00000000000E+00  0.99999998245E-14  0.12500000000E+03  0.12500000000E+03 0.  0.
        -11    1    3    3    0    0  0.40358392489E+01 -0.16892967760E+01  0.58069002340E+02  0.58233587860E+02  0.51100000000E-03 0.  1.
         23    2    1    0    0    0 -0.11674434647E+02  0.82767639898E+01  0.26784328248E+02  0.94632295342E+02  0.89627416763E+02 0.  0.
         11    1    3    3    0    0 -0.15710273896E+02  0.99660607658E+01 -0.31284674092E+02  0.36398707482E+02  0.51100000000E-03 0. -1.
         22    1    1    0    0    0  0.11674434647E+02 -0.82767639898E+01 -0.26784328248E+02  0.30367704658E+02  0.00000000000E+00 0.  1.
</event>
<event>
 5    1  0.1096978E-009  0.9118800E+02  0.7818608E-02  0.1130116E+00
         25   -1    0    0    0    0  0.00000000000E+00  0.00000000000E+00  0.99999998245E-14  0.12500000000E+03  0.12500000000E+03 0.  0.
        -11    1    3    3    0    0  0.28742420797E+01  0.32354771215E+02 -0.14313854026E+02  0.35496181559E+02  0.51100000000E-03 0. -1.
         23    2    1    0    0    0  0.23371097210E+02 -0.20175895747E+02  0.15900073536E+01  0.94083934962E+02  0.88859348077E+02 0.  0.
         11    1    3    3    0    0  0.20496855131E+02 -0.52530666963E+02  0.15903861379E+02  0.58587753403E+02  0.51100000000E-03 0.  1.
         22    1    1    0    0    0 -0.23371097210E+02  0.20175895747E+02 -0.15900073536E+01  0.30916065038E+02  0.00000000000E+00 0.  1.
</event>
<event>
 5    1  0.1096978E-009  0.9118800E+02  0.7818608E-02  0.1130116E+00
         25   -1    0    0    0    0  0.00000000000E+00  0.00000000000E+00  0.99999998245E-14  0.12500000000E+03  0.12500000000E+03 0.  0.
        -11    1    3    3    0    0 -0.23287736815E+02  0.26856804618E+02  0.26240538351E+02  0.44183396129E+02  0.51100000000E-03 0.  1.
         23    2    1    0    0    0 -0.64494201561E+01 -0.22908656007E+02  0.62622694071E+01  0.10039070179E+03  0.97327670510E+02 0.  0.
         11    1    3    3    0    0  0.16838316659E+02 -0.49765460625E+02 -0.19978268944E+02  0.56207305659E+02  0.51100000000E-03 0. -1.
         22    1    1    0    0    0  0.64494201561E+01  0.22908656007E+02 -0.62622694071E+01  0.24609298212E+02  0.00000000000E+00 0. -1.
</event>
<event>
 5    1  0.1096978E-009  0.9118800E+02  0.7818608E-02  0.1130116E+00
         25   -1    0    0    0    0  0.00000000000E+00  0.00000000000E+00  0.99999998245E-14  0.12500000000E+03  0.12500000000E+03 0.  0.
        -11    1    3    3    0    0 -0.14624540646E+02 -0.53244402349E+02  0.27378091528E+02  0.61631189073E+02  0.51100000000E-03 0.  1.
         23    2    1    0    0    0 -0.88282027710E+00 -0.23769796670E+02  0.16984737689E+02  0.95772206382E+02  0.91203352984E+02 0.  0.
         11    1    3    3    0    0  0.13741720368E+02  0.29474605679E+02 -0.10393353839E+02  0.34141017309E+02  0.51100000000E-03 0. -1.
         22    1    1    0    0    0  0.88282027710E+00  0.23769796670E+02 -0.16984737689E+02  0.29227793618E+02  0.00000000000E+00 0.  1.
</event>
<event>
 5    1  0.1096978E-009  0.9118800E+02  0.7818608E-02  0.1130116E+00
         25   -1    0    0    0    0  0.00000000000E+00  0.00000000000E+00  0.99999998245E-14  0.12500000000E+03  0.12500000000E+03 0.  0.
        -11    1    3    3    0    0  0.13305417090E+02  0.31312105910E+02  0.20979901906E+02  0.39970468907E+02  0.51100000000E-03 0.  1.
         23    2    1    0    0    0 -0.19271310312E+02 -0.13775147307E+02  0.17204606961E+02  0.95723104926E+02  0.91136031467E+02 0.  0.
         11    1    3    3    0    0 -0.32576727402E+02 -0.45087253217E+02 -0.37752949445E+01  0.55752636019E+02  0.51100000000E-03 0. -1.
         22    1    1    0    0    0  0.19271310312E+02  0.13775147307E+02 -0.17204606961E+02  0.29276895074E+02  0.00000000000E+00 0. -1.
</event>
<event>
 5    1  0.1096978E-009  0.9118800E+02  0.7818608E-02  0.1130116E+00
         25   -1    0    0    0    0  0.00000000000E+00  0.00000000000E+00  0.99999998245E-14  0.12500000000E+03  0.12500000000E+03 0.  0.
        -11    1    3    3    0    0 -0.60501602599E+01  0.26550521936E+02 -0.20332162277E+02  0.33984282799E+02  0.51100000000E-03 0.  1.
         23    2    1    0    0    0 -0.83445580886E+01 -0.24878160780E+02  0.13404925445E+02  0.95533976181E+02  0.90876256774E+02 0.  0.
         11    1    3    3    0    0 -0.22943978286E+01 -0.51428682716E+02  0.33737087721E+02  0.61549693383E+02  0.51100000000E-03 0. -1.
         22    1    1    0    0    0  0.83445580886E+01  0.24878160780E+02 -0.13404925445E+02  0.29466023819E+02  0.00000000000E+00 0. -1.
</event>
<event>
 5    1  0.1096978E-009  0.9118800E+02  0.7818608E-02  0.1130116E+00
         25   -1    0    0    0    0  0.00000000000E+00  0.00000000000E+00  0.99999998245E-14  0.12500000000E+03  0.12500000000E+03 0.  0.
        -11    1    3    3    0    0  0.42462314593E+02  0.23094814547E+02  0.25056268828E+02  0.54444790636E+02  0.51100000000E-03 0.  1.
         23    2    1    0    0    0  0.27778663892E+02 -0.66091660191E+01 -0.73825947159E+00  0.96436382054E+02  0.92109149999E+02 0.  0.
         11    1    3    3    0    0 -0.14683650701E+02 -0.29703980566E+02 -0.25794528299E+02  0.41991591418E+02  0.51100000000E-03 0. -1.
         22    1    1    0    0    0 -0.27778663892E+02  0.66091660191E+01  0.73825947159E+00  0.28563617946E+02  0.00000000000E+00 0.  1.
</event>
<event>
 5    1  0.1096978E-009  0.9118800E+02  0.7818608E-02  0.1130116E+00
         25   -1    0    0    0    0  0.00000000000E+00  0.00000000000E+00  0.99999998245E-14  0.12500000000E+03  0.12500000000E+03 0.  0.
        -11    1    3    3    0    0  0.36539371994E+02 -0.33731334006E+02 -0.12751266776E+02  0.51337349018E+02  0.51100000000E-03 0. -1.
         23    2    1    0    0    0  0.17090767667E+02  0.14718383957E+01 -0.26147265782E+02  0.93727965279E+02  0.88357180352E+02 0.  0.
         11    1    3    3    0    0 -0.19448604326E+02  0.35203172402E+02 -0.13395999005E+02  0.42390616261E+02  0.51100000000E-03 0.  1.
         22    1    1    0    0    0 -0.17090767667E+02 -0.14718383957E+01  0.26147265782E+02  0.31272034721E+02  0.00000000000E+00 0. -1.
</event>
<event>
 5    1  0.1096978E-009  0.9118800E+02  0.7818608E-02  0.1130116E+00
         25   -1    0    0    0    0  0.00000000000E+00  0.00000000000E+00  0.99999998245E-14  0.12500000000E+03  0.12500000000E+03 0.  0.
        -11    1    3    3    0    0  0.63286512863E+01  0.39739410251E+02  0.13692559547E+02  0.42505984772E+02  0.51100000000E-03 0. -1.
         23    2    1    0    0    0  0.14563382891E+02 -0.11513869081E+02  0.23206560761E+02  0.95281222017E+02  0.90527926654E+02 0.  0.
         11    1    3    3    0    0  0.82347316050E+01 -0.51253279332E+02  0.95140012138E+01  0.52775237245E+02  0.51100000000E-03 0.  1.
         22    1    1    0    0    0 -0.14563382891E+02  0.11513869081E+02 -0.23206560761E+02  0.29718777983E+02  0.00000000000E+00 0.  1.
</event>
<event>
 5    1  0.1096978E-009  0.9118800E+02  0.7818608E-02  0.1130116E+00
         25   -1    0    0    0    0  0.00000000000E+00  0.00000000000E+00  0.99999998245E-14  0.12500000000E+03  0.12500000000E+03 0.  0.
        -11    1    3    3    0    0  0.21344912631E+01  0.31290774424E+02 -0.13812062824E+02  0.34270128344E+02  0.51100000000E-03 0. -1.
         23    2    1    0    0    0  0.12080022309E+02 -0.27456469171E+02 -0.26818034697E+01  0.94883946006E+02  0.89977700023E+02 0.  0.
         11    1    3    3    0    0  0.99455310457E+01 -0.58747243596E+02  0.11130259354E+02  0.60613817661E+02  0.51100000000E-03 0.  1.
         22    1    1    0    0    0 -0.12080022309E+02  0.27456469171E+02  0.26818034697E+01  0.30116053994E+02  0.00000000000E+00 0.  1.
</event>
<event>
 5    1  0.1096978E-009  0.9118800E+02  0.7818608E-02  0.1130116E+00
         25   -1    0    0    0    0  0.00000000000E+00  0.00000000000E+00  0.99999998245E-14  0.12500000000E+03  0.12500000000E+03 0.  0.
        -11    1    3    3    0    0  0.56951965432E+02  0.47065673138E+01  0.18786787372E+02  0.60154979200E+02  0.51100000000E-03 0.  1.
         23    2    1    0    0    0  0.27180080686E+02  0.81571621649E+01 -0.18787366804E+01  0.96560138323E+02  0.92276945012E+02 0.  0.
         11    1    3    3    0    0 -0.29771884746E+02  0.34505948510E+01 -0.20665524053E+02  0.36405159123E+02  0.51100000000E-03 0. -1.
         22    1    1    0    0    0 -0.27180080686E+02 -0.81571621649E+01  0.18787366804E+01  0.28439861677E+02  0.00000000000E+00 0.  1.
</event>
<event>
 5    1  0.1096978E-009  0.9118800E+02  0.7818608E-02  0.1130116E+00
         25   -1    0    0    0    0  0.00000000000E+00  0.00000000000E+00  0.99999998245E-14  0.12500000000E+03  0.12500000000E+03 0.  0.
        -11    1    3    3    0    0 -0.40106249249E+00  0.51052545906E+02 -0.14927952380E+02  0.53191795017E+02  0.51100000000E-03 0. -1.
         23    2    1    0    0    0 -0.21218459914E+02  0.13373027359E+02 -0.14056852886E+02  0.96248373700E+02  0.91853652213E+02 0.  0.
         11    1    3    3    0    0 -0.20817397421E+02 -0.37679518547E+02  0.87109949389E+00  0.43056578683E+02  0.51100000000E-03 0.  1.
         22    1    1    0    0    0  0.21218459914E+02 -0.13373027359E+02  0.14056852886E+02  0.28751626300E+02  0.00000000000E+00 0.  1.
</event>
<event>
 5    1  0.1096978E-009  0.9118800E+02  0.7818608E-02  0.1130116E+00
         25   -1    0    0    0    0  0.00000000000E+00  0.00000000000E+00  0.99999998245E-14  0.12500000000E+03  0.12500000000E+03 0.  0.
        -11    1    3    3    0    0  0.21883838586E+02 -0.23530017513E+02  0.27936207504E+02  0.42579288456E+02  0.51100000000E-03 0. -1.
         23    2    1    0    0    0 -0.18209844386E+02  0.11518632201E+02  0.18370274071E+02  0.96684910564E+02  0.92445809212E+02 0.  0.
         11    1    3    3    0    0 -0.40093682971E+02  0.35048649714E+02 -0.95659334328E+01  0.54105622108E+02  0.51100000000E-03 0.  1.
         22    1    1    0    0    0  0.18209844386E+02 -0.11518632201E+02 -0.18370274071E+02  0.28315089436E+02  0.00000000000E+00 0.  1.
</event>
<event>
 5    1  0.1096978E-009  0.9118800E+02  0.7818608E-02  0.1130116E+00
         25   -1    0    0    0    0  0.00000000000E+00  0.00000000000E+00  0.99999998245E-14  0.12500000000E+03  0.12500000000E+03 0.  0.
        -11    1    3    3    0    0  0.35827003747E+02 -0.13304821447E+02 -0.29987556065E+02  0.48578246060E+02  0.51100000000E-03 0. -1.
         23    2    1    0    0    0 -0.13464200815E+02 -0.15371829560E+02 -0.46331584662E+01  0.10404662307E+03  0.10191494378E+03 0.  0.
         11    1    3    3    0    0 -0.49291204562E+02 -0.20670081131E+01  0.25354397599E+02  0.55468377005E+02  0.51100000000E-03 0.  1.
         22    1    1    0    0    0  0.13464200815E+02  0.15371829560E+02  0.46331584662E+01  0.20953376935E+02  0.00000000000E+00 0.  1.
</event>
<event>
 5    1  0.1096978E-009  0.9118800E+02  0.7818608E-02  0.1130116E+00
         25   -1    0    0    0    0  0.00000000000E+00  0.00000000000E+00  0.99999998245E-14  0.12500000000E+03  0.12500000000E+03 0.  0.
        -11    1    3    3    0    0 -0.12254026360E+02 -0.21868419402E+02  0.25165532749E+02  0.35520317678E+02  0.51100000000E-03 0.  1.
         23    2    1    0    0    0  0.50968264092E+01  0.68127279059E+01 -0.26533539813E+02  0.97135692437E+02  0.93053334756E+02 0.  0.
         11    1    3    3    0    0  0.17350852769E+02  0.28681147308E+02 -0.51699072561E+02  0.61615374759E+02  0.51100000000E-03 0. -1.
         22    1    1    0    0    0 -0.50968264092E+01 -0.68127279059E+01  0.26533539813E+02  0.27864307563E+02  0.00000000000E+00 0. -1.
</event>
<event>
 5    1  0.1096978E-009  0.9118800E+02  0.7818608E-02  0.1130116E+00
         25   -1    0    0    0    0  0.00000000000E+00  0.00000000000E+00  0.99999998245E-14  0.12500000000E+03  0.12500000000E+03 0.  0.
        -11    1    3    3    0    0 -0.31132369314E+02  0.46194731204E+02 -0.28247562867E+02  0.62458805770E+02  0.51100000000E-03 0.  1.
         23    2    1    0    0    0 -0.14633915477E+02  0.22185262144E+02 -0.11706022671E+02  0.95959195855E+02  0.91459274892E+02 0.  0.
         11    1    3    3    0    0  0.16498453837E+02 -0.24009469060E+02  0.16541540196E+02  0.33500390085E+02  0.51100000000E-03 0. -1.
         22    1    1    0    0    0  0.14633915477E+02 -0.22185262144E+02  0.11706022671E+02  0.29040804145E+02  0.00000000000E+00 0.  1.
</event>
<event>
 5    1  0.1096978E-009  0.9118800E+02  0.7818608E-02  0.1130116E+00
         25   -1    0    0    0    0  0.00000000000E+00  0.00000000000E+00  0.99999998245E-14  0.12500000000E+03  0.12500000000E+03 0.  0.
        -11    1    3    3    0    0  0.15702438245E+01  0.88523685388E+01 -0.38559770370E+02  0.39594014518E+02  0.51100000000E-03 0.  1.
         23    2    1    0    0    0 -0.13643186540E+02 -0.26237294870E+02  0.20226846824E+01  0.95358417142E+02  0.90634454185E+02 0.  0.
         11    1    3    3    0    0 -0.15213430364E+02 -0.35089663408E+02  0.40582455053E+02  0.55764402623E+02  0.51100000000E-03 0. -1.
         22    1    1    0    0    0  0.13643186540E+02  0.26237294870E+02 -0.20226846824E+01  0.29641582858E+02  0.00000000000E+00 0. -1.
</event>
<event>
 5    1  0.1096978E-009  0.9118800E+02  0.7818608E-02  0.1130116E+00
         25   -1    0    0    0    0  0.00000000000E+00  0.00000000000E+00  0.99999998245E-14  0.12500000000E+03  0.12500000000E+03 0.  0.
        -11    1    3    3    0    0 -0.55269591919E+02  0.47615001208E+01 -0.63336224756E+01  0.55834706485E+02  0.51100000000E-03 0.  1.
         23    2    1    0    0    0 -0.25465009332E+02  0.29262732176E+01 -0.23454772178E+02  0.90255847785E+02  0.83300431849E+02 0.  0.
         11    1    3    3    0    0  0.29804582587E+02 -0.18352269032E+01 -0.17121149703E+02  0.34421141300E+02  0.51100000000E-03 0. -1.
         22    1    1    0    0    0  0.25465009332E+02 -0.29262732176E+01  0.23454772178E+02  0.34744152215E+02  0.00000000000E+00 0.  1.
</event>
<event>
 5    1  0.1096978E-009  0.9118800E+02  0.7818608E-02  0.1130116E+00
         25   -1    0    0    0    0  0.00000000000E+00  0.00000000000E+00  0.99999998245E-14  0.12500000000E+03  0.12500000000E+03 0.  0.
        -11    1    3    3    0    0  0.22838574962E+01 -0.29361193005E+02 -0.31134689805E+02  0.42856324729E+02  0.51100000000E-03 0. -1.
         23    2    1    0    0    0  0.29026089593E+02 -0.13516967839E+01  0.46363691534E+01  0.95574893710E+02  0.90932521286E+02 0.  0.
         11    1    3    3    0    0  0.26742232097E+02  0.28009496221E+02  0.35771058959E+02  0.52718568981E+02  0.51100000000E-03 0.  1.
         22    1    1    0    0    0 -0.29026089593E+02  0.13516967839E+01 -0.46363691534E+01  0.29425106290E+02  0.00000000000E+00 0.  1.
</event>
<event>
 5    1  0.1096978E-009  0.9118800E+02  0.7818608E-02  0.1130116E+00
         25   -1    0    0    0    0  0.00000000000E+00  0.00000000000E+00  0.99999998245E-14  0.12500000000E+03  0.12500000000E+03 0.  0.
        -11    1    3    3    0    0 -0.25650500208E+02  0.30516519766E+02  0.41105045668E+01  0.40076207250E+02  0.51100000000E-03 0. -1.
         23    2    1    0    0    0 -0.12074403962E+02 -0.21411748711E+02 -0.13985696414E+02  0.96718311258E+02  0.92490960718E+02 0.  0.
         11    1    3    3    0    0  0.13576096245E+02 -0.51928268477E+02 -0.18096200980E+02  0.56642104008E+02  0.51100000000E-03 0.  1.
         22    1    1    0    0    0  0.12074403962E+02  0.21411748711E+02  0.13985696414E+02  0.28281688742E+02  0.00000000000E+00 0.  1.
</event>
<event>
 5    1  0.1096978E-009  0.9118800E+02  0.7818608E-02  0.1130116E+00
         25   -1    0    0    0    0  0.00000000000E+00  0.00000000000E+00  0.99999998245E-14  0.12500000000E+03  0.12500000000E+03 0.  0.
        -11    1    3    3    0    0  0.57870035543E+02  0.10245708784E-01 -0.39785609987E+01  0.58006638125E+02  0.51100000000E-03 0. -1.
         23    2    1    0    0    0  0.28805504087E+02  0.85328525658E+01  0.12468780055E+02  0.92472517548E+02  0.86562863786E+02 0.  0.
         11    1    3    3    0    0 -0.29064531455E+02  0.85226068570E+01  0.16447341054E+02  0.34465879423E+02  0.51100000000E-03 0.  1.
         22    1    1    0    0    0 -0.28805504087E+02 -0.85328525658E+01 -0.12468780055E+02  0.32527482452E+02  0.00000000000E+00 0. -1.
</event>
<event>
 5    1  0.1096978E-009  0.9118800E+02  0.7818608E-02  0.1130116E+00
         25   -1    0    0    0    0  0.00000000000E+00  0.00000000000E+00  0.99999998245E-14  0.12500000000E+03  0.12500000000E+03 0.  0.
        -11    1    3    3    0    0 -0.12200869218E+02  0.52057098619E+01  0.44442666995E+02  0.46380074114E+02  0.51100000000E-03 0. -1.
         23    2    1    0    0    0 -0.58771548235E+01  0.24181763005E+02 -0.49122804652E+01  0.99634095518E+02  0.96351045036E+02 0.  0.
         11    1    3    3    0    0  0.63237143947E+01  0.18976053143E+02 -0.49354947461E+02  0.53254021404E+02  0.51100000000E-03 0.  1.
         22    1    1    0    0    0  0.58771548235E+01 -0.24181763005E+02  0.49122804652E+01  0.25365904482E+02  0.00000000000E+00 0.  1.
</event>
<event>
 5    1  0.1096978E-009  0.9118800E+02  0.7818608E-02  0.1130116E+00
         25   -1    0    0    0    0  0.00000000000E+00  0.00000000000E+00  0.99999998245E-14  0.12500000000E+03  0.12500000000E+03 0.  0.
        -11    1    3    3    0    0  0.50737166531E+01  0.33800423325E+02  0.39935083149E+02  0.52564456470E+02  0.51100000000E-03 0.  1.
         23    2    1    0    0    0 -0.23948714137E+01 -0.57586446259E+01  0.30440925450E+02  0.93926742378E+02  0.88637946696E+02 0.  0.
         11    1    3    3    0    0 -0.74685880667E+01 -0.39559067951E+02 -0.94941576992E+01  0.41362285908E+02  0.51100000000E-03 0. -1.
         22    1    1    0    0    0  0.23948714137E+01  0.57586446259E+01 -0.30440925450E+02  0.31073257622E+02  0.00000000000E+00 0.  1.
</event>
<event>
 5    1  0.1096978E-009  0.9118800E+02  0.7818608E-02  0.1130116E+00
         25   -1    0    0    0    0  0.00000000000E+00  0.00000000000E+00  0.99999998245E-14  0.12500000000E+03  0.12500000000E+03 0.  0.
        -11    1    3    3    0    0 -0.26754149826E+02 -0.20330780695E+02  0.38362307856E+02  0.50997959184E+02  0.51100000000E-03 0.  1.
         23    2    1    0    0    0 -0.28162404580E+02 -0.62527594697E+00 -0.28361362532E+01  0.96688241479E+02  0.92450312978E+02 0.  0.
         11    1    3    3    0    0 -0.14082547534E+01  0.19705504748E+02 -0.41198444110E+02  0.45690282295E+02  0.51100000000E-03 0. -1.
         22    1    1    0    0    0  0.28162404580E+02  0.62527594697E+00  0.28361362532E+01  0.28311758521E+02  0.00000000000E+00 0. -1.
</event>
<event>
 5    1  0.1096978E-009  0.9118800E+02  0.7818608E-02  0.1130116E+00
         25   -1    0    0    0    0  0.00000000000E+00  0.00000000000E+00  0.99999998245E-14  0.12500000000E+03  0.12500000000E+03 0.  0.
        -11    1    3    3    0    0 -0.69952330408E+01 -0.27778889660E+02 -0.28173177119E+02  0.40178699646E+02  0.51100000000E-03 0. -1.
         23    2    1    0    0    0  0.11833493683E+02 -0.39207280233E+01  0.22505612789E+02  0.99272460514E+02  0.95880733876E+02 0.  0.
         11    1    3    3    0    0  0.18828726723E+02  0.23858161636E+02  0.50678789908E+02  0.59093760868E+02  0.51100000000E-03 0.  1.
         22    1    1    0    0    0 -0.11833493683E+02  0.39207280233E+01 -0.22505612789E+02  0.25727539486E+02  0.00000000000E+00 0.  1.
</event>
<event>
 5    1  0.1096978E-009  0.9118800E+02  0.7818608E-02  0.1130116E+00
         25   -1    0    0    0    0  0.00000000000E+00  0.00000000000E+00  0.99999998245E-14  0.12500000000E+03  0.12500000000E+03 0.  0.
        -11    1    3    3    0    0  0.11105027124E+02 -0.32083037568E+02 -0.33123515295E+02  0.47432164116E+02  0.51100000000E-03 0.  1.
         23    2    1    0    0    0  0.38002688142E+01 -0.22591975577E+02  0.15389395875E+02  0.97401577782E+02  0.93409819856E+02 0.  0.
         11    1    3    3    0    0 -0.73047583099E+01  0.94910619907E+01  0.48512911170E+02  0.49969413666E+02  0.51100000000E-03 0. -1.
         22    1    1    0    0    0 -0.38002688142E+01  0.22591975577E+02 -0.15389395875E+02  0.27598422218E+02  0.00000000000E+00 0. -1.
</event>
<event>
 5    1  0.1096978E-009  0.9118800E+02  0.7818608E-02  0.1130116E+00
         25   -1    0    0    0    0  0.00000000000E+00  0.00000000000E+00  0.99999998245E-14  0.12500000000E+03  0.12500000000E+03 0.  0.
        -11    1    3    3    0    0  0.31834216163E+02  0.30109719602E+02  0.34403812171E+00  0.43819298211E+02  0.51100000000E-03 0.  1.
         23    2    1    0    0    0  0.13954721070E+02 -0.21680775273E+02 -0.45146867292E+01  0.98824197188E+02  0.95294539703E+02 0.  0.
         11    1    3    3    0    0 -0.17879495093E+02 -0.51790494874E+02 -0.48587248509E+01  0.55004898978E+02  0.51100000000E-03 0. -1.
         22    1    1    0    0    0 -0.13954721070E+02  0.21680775273E+02  0.45146867292E+01  0.26175802812E+02  0.00000000000E+00 0. -1.
</event>
<event>
 5    1  0.1096978E-009  0.9118800E+02  0.7818608E-02  0.1130116E+00
         25   -1    0    0    0    0  0.00000000000E+00  0.00000000000E+00  0.99999998245E-14  0.12500000000E+03  0.12500000000E+03 0.  0.
        -11    1    3    3    0    0 -0.18384865650E+02 -0.26894261151E+01 -0.37151459373E+02  0.41538743742E+02  0.51100000000E-03 0.  1.
         23    2    1    0    0    0  0.24655821759E+02 -0.13803171414E+02 -0.52346344312E+01  0.96262594318E+02  0.91873002452E+02 0.  0.
         11    1    3    3    0    0  0.43040687410E+02 -0.11113745299E+02  0.31916824942E+02  0.54723850576E+02  0.51100000000E-03 0. -1.
         22    1    1    0    0    0 -0.24655821759E+02  0.13803171414E+02  0.52346344312E+01  0.28737405682E+02  0.00000000000E+00 0. -1.
</event>
<event>
 5    1  0.1096978E-009  0.9118800E+02  0.7818608E-02  0.1130116E+00
         25   -1    0    0    0    0  0.00000000000E+00  0.00000000000E+00  0.99999998245E-14  0.12500000000E+03  0.12500000000E+03 0.  0.
        -11    1    3    3    0    0  0.22931141215E+02  0.39265322998E+02  0.36887706876E+02  0.58551735640E+02  0.51100000000E-03 0. -1.
         23    2    1    0    0    0  0.42237448734E+01  0.27538681928E+02  0.60310362324E+01  0.96493993245E+02  0.92187300162E+02 0.  0.
         11    1    3    3    0    0 -0.18707396342E+02 -0.11726641070E+02 -0.30856670644E+02  0.37942257605E+02  0.51100000000E-03 0.  1.
         22    1    1    0    0    0 -0.42237448734E+01 -0.27538681928E+02 -0.60310362324E+01  0.28506006755E+02  0.00000000000E+00 0. -1.
</event>
<event>
 5    1  0.1096978E-009  0.9118800E+02  0.7818608E-02  0.1130116E+00
         25   -1    0    0    0    0  0.00000000000E+00  0.00000000000E+00  0.99999998245E-14  0.12500000000E+03  0.12500000000E+03 0.  0.
        -11    1    3    3    0    0 -0.31658190133E+02  0.11316124414E+02 -0.27122176738E+02  0.43196158921E+02  0.51100000000E-03 0. -1.
         23    2    1    0    0    0 -0.11627932198E+02  0.19836990997E+02  0.19629620785E+02  0.94766954649E+02  0.89815024703E+02 0.  0.
         11    1    3    3    0    0  0.20030257934E+02  0.85208665833E+01  0.46751797523E+02  0.51570795729E+02  0.51100000000E-03 0.  1.
         22    1    1    0    0    0  0.11627932198E+02 -0.19836990997E+02 -0.19629620785E+02  0.30233045351E+02  0.00000000000E+00 0. -1.
</event>
<event>
 5    1  0.1096978E-009  0.9118800E+02  0.7818608E-02  0.1130116E+00
         25   -1    0    0    0    0  0.00000000000E+00  0.00000000000E+00  0.99999998245E-14  0.12500000000E+03  0.12500000000E+03 0.  0.
        -11    1    3    3    0    0 -0.50363153843E+02 -0.10195066712E+02 -0.26111601254E+02  0.57638549345E+02  0.51100000000E-03 0.  1.
         23    2    1    0    0    0 -0.31864708036E+02 -0.23166380521E+02 -0.14692101700E+02  0.82953613032E+02  0.71508064287E+02 0.  0.
         11    1    3    3    0    0  0.18498445806E+02 -0.12971313809E+02  0.11419499554E+02  0.25315063687E+02  0.51100000000E-03 0. -1.
         22    1    1    0    0    0  0.31864708036E+02  0.23166380521E+02  0.14692101700E+02  0.42046386968E+02  0.00000000000E+00 0.  1.
</event>
<event>
 5    1  0.1096978E-009  0.9118800E+02  0.7818608E-02  0.1130116E+00
         25   -1    0    0    0    0  0.00000000000E+00  0.00000000000E+00  0.99999998245E-14  0.12500000000E+03  0.12500000000E+03 0.  0.
        -11    1    3    3    0    0 -0.20775380783E+01 -0.45372955912E+02 -0.23485512199E+02  0.51133067345E+02  0.51100000000E-03 0.  1.
         23    2    1    0    0    0  0.31094882731E+01 -0.83177190460E+00 -0.28557935422E+02  0.96261238068E+02  0.91871157155E+02 0.  0.
         11    1    3    3    0    0  0.51870263513E+01  0.44541184007E+02 -0.50724232234E+01  0.45128170722E+02  0.51100000000E-03 0. -1.
         22    1    1    0    0    0 -0.31094882731E+01  0.83177190460E+00  0.28557935422E+02  0.28738761932E+02  0.00000000000E+00 0.  1.
</event>
<event>
 5    1  0.1096978E-009  0.9118800E+02  0.7818608E-02  0.1130116E+00
         25   -1    0    0    0    0  0.00000000000E+00  0.00000000000E+00  0.99999998245E-14  0.12500000000E+03  0.12500000000E+03 0.  0.
        -11    1    3    3    0    0 -0.89862255225E+01 -0.26438883182E+02 -0.11564251259E+02  0.30224141022E+02  0.51100000000E-03 0. -1.
         23    2    1    0    0    0  0.12455416424E+02  0.29897674640E+02  0.36866808156E+01  0.92402454653E+02  0.86461631163E+02 0.  0.
         11    1    3    3    0    0  0.21441641947E+02  0.56336557822E+02  0.15250932075E+02  0.62178313631E+02  0.51100000000E-03 0.  1.
         22    1    1    0    0    0 -0.12455416424E+02 -0.29897674640E+02 -0.36866808156E+01  0.32597545347E+02  0.00000000000E+00 0.  1.
</event>
<event>
 5    1  0.1096978E-009  0.9118800E+02  0.7818608E-02  0.1130116E+00
         25   -1    0    0    0    0  0.00000000000E+00  0.00000000000E+00  0.99999998245E-14  0.12500000000E+03  0.12500000000E+03 0.  0.
        -11    1    3    3    0    0 -0.24374890061E+02 -0.18824972846E+02 -0.28164087355E+02  0.41734047071E+02  0.51100000000E-03 0.  1.
         23    2    1    0    0    0  0.10020051692E+02 -0.23170049420E+02  0.13851135650E+02  0.96205789040E+02  0.91795682142E+02 0.  0.
         11    1    3    3    0    0  0.34394941753E+02 -0.43450765739E+01  0.42015223005E+02  0.54471741968E+02  0.51100000000E-03 0. -1.
         22    1    1    0    0    0 -0.10020051692E+02  0.23170049420E+02 -0.13851135650E+02  0.28794210960E+02  0.00000000000E+00 0. -1.
</event>
<event>
 5    1  0.1096978E-009  0.9118800E+02  0.7818608E-02  0.1130116E+00
         25   -1    0    0    0    0  0.00000000000E+00  0.00000000000E+00  0.99999998245E-14  0.12500000000E+03  0.12500000000E+03 0.  0.
        -11    1    3    3    0    0  0.46183721370E+02  0.37967690489E+02  0.10056458538E+01  0.59795425949E+02  0.51100000000E-03 0.  1.
         23    2    1    0    0    0  0.29132905484E+02  0.72609835292E+01  0.17310268537E+01  0.94926015932E+02  0.90036125989E+02 0.  0.
         11    1    3    3    0    0 -0.17050815886E+02 -0.30706706960E+02  0.72538099989E+00  0.35130589983E+02  0.51100000000E-03 0. -1.
         22    1    1    0    0    0 -0.29132905484E+02 -0.72609835292E+01 -0.17310268537E+01  0.30073984068E+02  0.00000000000E+00 0.  1.
</event>
<event>
 5    1  0.1096978E-009  0.9118800E+02  0.7818608E-02  0.1130116E+00
         25   -1    0    0    0    0  0.00000000000E+00  0.00000000000E+00  0.99999998245E-14  0.12500000000E+03  0.12500000000E+03 0.  0.
        -11    1    3    3    0    0 -0.20200729739E+02 -0.22869890654E+02 -0.16029255155E+02  0.34467932946E+02  0.51100000000E-03 0. -1.
         23    2    1    0    0    0  0.14753738955E+02 -0.12240143206E+01  0.27141180079E+02  0.94083747311E+02  0.88859084104E+02 0.  0.
         11    1    3    3    0    0  0.34954468694E+02  0.21645876333E+02  0.43170435234E+02  0.59615814365E+02  0.51100000000E-03 0.  1.
         22    1    1    0    0    0 -0.14753738955E+02  0.12240143206E+01 -0.27141180079E+02  0.30916252689E+02  0.00000000000E+00 0.  1.
</event>
<event>
 5    1  0.1096978E-009  0.9118800E+02  0.7818608E-02  0.1130116E+00
         25   -1    0    0    0    0  0.00000000000E+00  0.00000000000E+00  0.99999998245E-14  0.12500000000E+03  0.12500000000E+03 0.  0.
        -11    1    3    3    0    0  0.14769924505E+02  0.44224862688E+02 -0.21102327112E+02  0.51179071499E+02  0.51100000000E-03 0.  1.
         23    2    1    0    0    0  0.24851458387E+02  0.11018036961E+02  0.82074032767E+01  0.96603634194E+02  0.92335846498E+02 0.  0.
         11    1    3    3    0    0  0.10081533882E+02 -0.33206825727E+02  0.29309730389E+02  0.45424562695E+02  0.51100000000E-03 0. -1.
         22    1    1    0    0    0 -0.24851458387E+02 -0.11018036961E+02 -0.82074032767E+01  0.28396365806E+02  0.00000000000E+00 0.  1.
</event>
<event>
 5    1  0.1096978E-009  0.9118800E+02  0.7818608E-02  0.1130116E+00
         25   -1    0    0    0    0  0.00000000000E+00  0.00000000000E+00  0.99999998245E-14  0.12500000000E+03  0.12500000000E+03 0.  0.
        -11    1    3    3    0    0 -0.11125558908E+02 -0.22248371181E+02 -0.48680905169E+02  0.54668076696E+02  0.51100000000E-03 0. -1.
         23    2    1    0    0    0 -0.13714768361E+02 -0.24465139601E+02 -0.75302731064E+01  0.95959632579E+02  0.91459871773E+02 0.  0.
         11    1    3    3    0    0 -0.25892094533E+01 -0.22167684202E+01  0.41150632063E+02  0.41291555883E+02  0.51100000000E-03 0.  1.
         22    1    1    0    0    0  0.13714768361E+02  0.24465139601E+02  0.75302731064E+01  0.29040367421E+02  0.00000000000E+00 0. -1.
</event>
<event>
 5    1  0.1096978E-009  0.9118800E+02  0.7818608E-02  0.1130116E+00
         25   -1    0    0    0    0  0.00000000000E+00  0.00000000000E+00  0.99999998245E-14  0.12500000000E+03  0.12500000000E+03 0.  0.
        -11    1    3    3    0    0 -0.14391084220E+02 -0.53697253298E+02  0.14714220945E+01  0.55611719988E+02  0.51100000000E-03 0.  1.
         23    2    1    0    0    0  0.62616409961E+01 -0.21228693143E+02 -0.15815852938E+02  0.97796934645E+02  0.93937392242E+02 0.  0.
         11    1    3    3    0    0  0.20652725216E+02  0.32468560155E+02 -0.17287275033E+02  0.42185214657E+02  0.51100000000E-03 0. -1.
         22    1    1    0    0    0 -0.62616409961E+01  0.21228693143E+02  0.15815852938E+02  0.27203065355E+02  0.00000000000E+00 0.  1.
</event>
<event>
 5    1  0.1096978E-009  0.9118800E+02  0.7818608E-02  0.1130116E+00
         25   -1    0    0    0    0  0.00000000000E+00  0.00000000000E+00  0.99999998245E-14  0.12500000000E+03  0.12500000000E+03 0.  0.
        -11    1    3    3    0    0 -0.21173670270E+02 -0.15652547435E+02  0.82152489221E+01  0.27582909003E+02  0.51100000000E-03 0.  1.
         23    2    1    0    0    0  0.18532875167E+02  0.25143907029E+02  0.22772664895E+02  0.86344110552E+02  0.77207691572E+02 0.  0.
         11    1    3    3    0    0  0.39706545438E+02  0.40796454464E+02  0.14557415973E+02  0.58761201549E+02  0.51100000000E-03 0. -1.
         22    1    1    0    0    0 -0.18532875167E+02 -0.25143907029E+02 -0.22772664895E+02  0.38655889448E+02  0.00000000000E+00 0. -1.
</event>
<event>
 5    1  0.1096978E-009  0.9118800E+02  0.7818608E-02  0.1130116E+00
         25   -1    0    0    0    0  0.00000000000E+00  0.00000000000E+00  0.99999998245E-14  0.12500000000E+03  0.12500000000E+03 0.  0.
        -11    1    3    3    0    0 -0.30246728175E+02  0.18304071301E+02 -0.11313606346E+02  0.37120092676E+02  0.51100000000E-03 0. -1.
         23    2    1    0    0    0  0.25568128011E+02 -0.48600175415E+01 -0.85185625413E+01  0.97615426820E+02  0.93695553283E+02 0.  0.
         11    1    3    3    0    0  0.55814856186E+02 -0.23164088843E+02  0.27950438043E+01  0.60495334143E+02  0.51100000000E-03 0.  1.
         22    1    1    0    0    0 -0.25568128011E+02  0.48600175415E+01  0.85185625413E+01  0.27384573180E+02  0.00000000000E+00 0.  1.
</event>
<event>
 5    1  0.1096978E-009  0.9118800E+02  0.7818608E-02  0.1130116E+00
         25   -1    0    0    0    0  0.00000000000E+00  0.00000000000E+00  0.99999998245E-14  0.12500000000E+03  0.12500000000E+03 0.  0.
        -11    1    3    3    0    0 -0.16037014329E+02 -0.42295243987E+02 -0.14693972385E+02  0.47560343956E+02  0.51100000000E-03 0.  1.
         23    2    1    0    0    0  0.98708669318E+01  0.31623582505E+01 -0.22277499169E+02  0.10042925534E+03  0.97377173075E+02 0.  0.
         11    1    3    3    0    0  0.25907881261E+02  0.45457602238E+02 -0.75835267840E+01  0.52868911388E+02  0.51100000000E-03 0. -1.
         22    1    1    0    0    0 -0.98708669318E+01 -0.31623582505E+01  0.22277499169E+02  0.24570744655E+02  0.00000000000E+00 0. -1.
</event>
<event>
 5    1  0.1096978E-009  0.9118800E+02  0.7818608E-02  0.1130116E+00
         25   -1    0    0    0    0  0.00000000000E+00  0.00000000000E+00  0.99999998245E-14  0.12500000000E+03  0.12500000000E+03 0.  0.
        -11    1    3    3    0    0  0.39399303076E+02 -0.10696807826E+02  0.15322738561E+02  0.43606342404E+02  0.51100000000E-03 0.  1.
         23    2    1    0    0    0 -0.14071291630E+02 -0.14382900015E+02  0.18994465719E+02  0.97329459909E+02  0.93313262601E+02 0.  0.
         11    1    3    3    0    0 -0.53470594706E+02 -0.36860921893E+01  0.36717271582E+01  0.53723117505E+02  0.51100000000E-03 0. -1.
         22    1    1    0    0    0  0.14071291630E+02  0.14382900015E+02 -0.18994465719E+02  0.27670540091E+02  0.00000000000E+00 0. -1.
</event>
<event>
 5    1  0.1096978E-009  0.9118800E+02  0.7818608E-02  0.1130116E+00
         25   -1    0    0    0    0  0.00000000000E+00  0.00000000000E+00  0.99999998245E-14  0.12500000000E+03  0.12500000000E+03 0.  0.
        -11    1    3    3    0    0  0.50958430323E+01  0.44079907145E+01  0.38770874819E+02  0.39351985119E+02  0.51100000000E-03 0.  1.
         23    2    1    0    0    0 -0.21670479394E+01 -0.28682996628E+02 -0.61192928001E+01  0.95591563511E+02  0.90955433471E+02 0.  0.
         11    1    3    3    0    0 -0.72628909717E+01 -0.33090987343E+02 -0.44890167619E+02  0.56239578392E+02  0.51100000000E-03 0. -1.
         22    1    1    0    0    0  0.21670479394E+01  0.28682996628E+02  0.61192928001E+01  0.29408436489E+02  0.00000000000E+00 0.  1.
</event>
<event>
 5    1  0.1096978E-009  0.9118800E+02  0.7818608E-02  0.1130116E+00
         25   -1    0    0    0    0  0.00000000000E+00  0.00000000000E+00  0.99999998245E-14  0.12500000000E+03  0.12500000000E+03 0.  0.
        -11    1    3    3    0    0 -0.29999142353E+02 -0.13593541527E+02  0.26742808402E+02  0.42425354620E+02  0.51100000000E-03 0. -1.
         23    2    1    0    0    0  0.18711459525E+02  0.86100782744E+01  0.19840741791E+02  0.96400923087E+02  0.92061016569E+02 0.  0.
         11    1    3    3    0    0  0.48710601878E+02  0.22203619801E+02 -0.69020666103E+01  0.53975568467E+02  0.51100000000E-03 0.  1.
         22    1    1    0    0    0 -0.18711459525E+02 -0.86100782744E+01 -0.19840741791E+02  0.28599076913E+02  0.00000000000E+00 0.  1.
</event>
<event>
 5    1  0.1096978E-009  0.9118800E+02  0.7818608E-02  0.1130116E+00
         25   -1    0    0    0    0  0.00000000000E+00  0.00000000000E+00  0.99999998245E-14  0.12500000000E+03  0.12500000000E+03 0.  0.
        -11    1    3    3    0    0  0.10591403000E+02  0.21945193318E+02  0.26047320411E+02  0.35668364528E+02  0.51100000000E-03 0. -1.
         23    2    1    0    0    0 -0.22260998545E+02 -0.18053677874E+02 -0.48224332546E+01  0.95935533663E+02  0.91426929379E+02 0.  0.
         11    1    3    3    0    0 -0.32852401545E+02 -0.39998871191E+02 -0.30869753666E+02  0.60267169135E+02  0.51100000000E-03 0.  1.
         22    1    1    0    0    0  0.22260998545E+02  0.18053677874E+02  0.48224332546E+01  0.29064466337E+02  0.00000000000E+00 0.  1.
</event>
<event>
 5    1  0.1096978E-009  0.9118800E+02  0.7818608E-02  0.1130116E+00
         25   -1    0    0    0    0  0.00000000000E+00  0.00000000000E+00  0.99999998245E-14  0.12500000000E+03  0.12500000000E+03 0.  0.
        -11    1    3    3    0    0  0.12261528972E+02  0.18789749642E+02 -0.33897420249E+02  0.40650152326E+02  0.51100000000E-03 0.  1.
         23    2    1    0    0    0 -0.28372794470E+02 -0.51441860041E+01 -0.56675204045E+01  0.95612946674E+02  0.90984815593E+02 0.  0.
         11    1    3    3    0    0 -0.40634323441E+02 -0.23933935646E+02  0.28229899844E+02  0.54962794348E+02  0.51100000000E-03 0. -1.
         22    1    1    0    0    0  0.28372794470E+02  0.51441860041E+01  0.56675204045E+01  0.29387053326E+02  0.00000000000E+00 0. -1.
</event>
<event>
 5    1  0.1096978E-009  0.9118800E+02  0.7818608E-02  0.1130116E+00
         25   -1    0    0    0    0  0.00000000000E+00  0.00000000000E+00  0.99999998245E-14  0.12500000000E+03  0.12500000000E+03 0.  0.
        -11    1    3    3    0    0  0.34362484277E+02  0.22439538624E+02  0.27765707238E+02  0.49550456285E+02  0.51100000000E-03 0.  1.
         23    2    1    0    0    0  0.10195631775E+02  0.33025716909E+02 -0.32662278730E+01  0.90282322527E+02  0.83340150178E+02 0.  0.
         11    1    3    3    0    0 -0.24166852502E+02  0.10586178285E+02 -0.31031935111E+02  0.40731866242E+02  0.51100000000E-03 0. -1.
         22    1    1    0    0    0 -0.10195631775E+02 -0.33025716909E+02  0.32662278730E+01  0.34717677473E+02  0.00000000000E+00 0.  1.
</event>
<event>
 5    1  0.1096978E-009  0.9118800E+02  0.7818608E-02  0.1130116E+00
         25   -1    0    0    0    0  0.00000000000E+00  0.00000000000E+00  0.99999998245E-14  0.12500000000E+03  0.12500000000E+03 0.  0.
        -11    1    3    3    0    0  0.38527521348E+02 -0.28555381480E+02  0.32247973291E+02  0.57790237016E+02  0.51100000000E-03 0.  1.
         23    2    1    0    0    0  0.20827837624E+02  0.27598750054E+01  0.20537691188E+02  0.95619521967E+02  0.90993848648E+02 0.  0.
         11    1    3    3    0    0 -0.17699683724E+02  0.31315256486E+02 -0.11710282103E+02  0.37829284951E+02  0.51100000000E-03 0. -1.
         22    1    1    0    0    0 -0.20827837624E+02 -0.27598750054E+01 -0.20537691188E+02  0.29380478033E+02  0.00000000000E+00 0.  1.
</event>
<event>
 5    1  0.1096978E-009  0.9118800E+02  0.7818608E-02  0.1130116E+00
         25   -1    0    0    0    0  0.00000000000E+00  0.00000000000E+00  0.99999998245E-14  0.12500000000E+03  0.12500000000E+03 0.  0.
        -11    1    3    3    0    0 -0.11925922907E+01 -0.12011173571E+02  0.52400135467E+02  0.53772342000E+02  0.51100000000E-03 0. -1.
         23    2    1    0    0    0  0.72603707887E+01 -0.25064828986E+02  0.13599071670E+02  0.95573933555E+02  0.90931201404E+02 0.  0.
         11    1    3    3    0    0  0.84529630794E+01 -0.13053655415E+02 -0.38801063797E+02  0.41801591555E+02  0.51100000000E-03 0.  1.
         22    1    1    0    0    0 -0.72603707887E+01  0.25064828986E+02 -0.13599071670E+02  0.29426066445E+02  0.00000000000E+00 0. -1.
</event>
<event>
 5    1  0.1096978E-009  0.9118800E+02  0.7818608E-02  0.1130116E+00
         25   -1    0    0    0    0  0.00000000000E+00  0.00000000000E+00  0.99999998245E-14  0.12500000000E+03  0.12500000000E+03 0.  0.
        -11    1    3    3    0    0  0.57758418392E+02 -0.19546795249E+01  0.80524869602E+00  0.57797094157E+02  0.51100000000E-03 0.  1.
         23    2    1    0    0    0  0.23507890365E+02  0.13383040564E+02  0.95193488754E+01  0.96323447084E+02  0.91955759857E+02 0.  0.
         11    1    3    3    0    0 -0.34250528027E+02  0.15337720089E+02  0.87141001794E+01  0.38526352927E+02  0.51100000000E-03 0. -1.
         22    1    1    0    0    0 -0.23507890365E+02 -0.13383040564E+02 -0.95193488754E+01  0.28676552916E+02  0.00000000000E+00 0.  1.
</event>
<event>
 5    1  0.1096978E-009  0.9118800E+02  0.7818608E-02  0.1130116E+00
         25   -1    0    0    0    0  0.00000000000E+00  0.00000000000E+00  0.99999998245E-14  0.12500000000E+03  0.12500000000E+03 0.  0.
        -11    1    3    3    0    0  0.17450041186E+02  0.24348691043E+02  0.19864360092E+02  0.35943782425E+02  0.51100000000E-03 0.  1.
         23    2    1    0    0    0 -0.25248733523E+02 -0.14280688142E+02  0.36438811701E+01  0.95764499862E+02  0.91192790096E+02 0.  0.
         11    1    3    3    0    0 -0.42698774710E+02 -0.38629379185E+02 -0.16220478922E+02  0.59820717437E+02  0.51100000000E-03 0. -1.
         22    1    1    0    0    0  0.25248733523E+02  0.14280688142E+02 -0.36438811701E+01  0.29235500138E+02  0.00000000000E+00 0. -1.
</event>
<event>
 5    1  0.1096978E-009  0.9118800E+02  0.7818608E-02  0.1130116E+00
         25   -1    0    0    0    0  0.00000000000E+00  0.00000000000E+00  0.99999998245E-14  0.12500000000E+03  0.12500000000E+03 0.  0.
        -11    1    3    3    0    0  0.13732162094E+02 -0.25467052819E+02 -0.19812192203E+02  0.35066594006E+02  0.51100000000E-03 0.  1.
         23    2    1    0    0    0  0.34776721286E+02  0.18195684258E+02 -0.83846148215E+01  0.84865164324E+02  0.74774936181E+02 0.  0.
         11    1    3    3    0    0  0.21044559192E+02  0.43662737077E+02  0.11427577381E+02  0.49798570318E+02  0.51100000000E-03 0. -1.
         22    1    1    0    0    0 -0.34776721286E+02 -0.18195684258E+02  0.83846148215E+01  0.40134835676E+02  0.00000000000E+00 0. -1.
</event>
<event>
 5    1  0.1096978E-009  0.9118800E+02  0.7818608E-02  0.1130116E+00
         25   -1    0    0    0    0  0.00000000000E+00  0.00000000000E+00  0.99999998245E-14  0.12500000000E+03  0.12500000000E+03 0.  0.
        -11    1    3    3    0    0 -0.58439782214E+01 -0.49425264890E+02 -0.30494219603E+02  0.58368710114E+02  0.51100000000E-03 0.  1.
         23    2    1    0    0    0 -0.89642949187E+01 -0.23741732651E+02  0.15752329942E+01  0.99573442789E+02  0.96272325708E+02 0.  0.
         11    1    3    3    0    0 -0.31203166974E+01  0.25683532240E+02  0.32069452598E+02  0.41204732674E+02  0.51100000000E-03 0. -1.
         22    1    1    0    0    0  0.89642949187E+01  0.23741732651E+02 -0.15752329942E+01  0.25426557211E+02  0.00000000000E+00 0.  1.
</event>
<event>
 5    1  0.1096978E-009  0.9118800E+02  0.7818608E-02  0.1130116E+00
         25   -1    0    0    0    0  0.00000000000E+00  0.00000000000E+00  0.99999998245E-14  0.12500000000E+03  0.12500000000E+03 0.  0.
        -11    1    3    3    0    0  0.97211221952E+01 -0.27906731735E+02  0.49926579783E+02  0.58016801549E+02  0.51100000000E-03 0. -1.
         23    2    1    0    0    0  0.13165782916E+01  0.50491070252E+01  0.23054736588E+02  0.10136215451E+03  0.98567431884E+02 0.  0.
         11    1    3    3    0    0 -0.84045439036E+01  0.32955838760E+02 -0.26871843196E+02  0.43345352964E+02  0.51100000000E-03 0.  1.
         22    1    1    0    0    0 -0.13165782916E+01 -0.50491070252E+01 -0.23054736588E+02  0.23637845487E+02  0.00000000000E+00 0. -1.
</event>
<event>
 5    1  0.1096978E-009  0.9118800E+02  0.7818608E-02  0.1130116E+00
         25   -1    0    0    0    0  0.00000000000E+00  0.00000000000E+00  0.99999998245E-14  0.12500000000E+03  0.12500000000E+03 0.  0.
        -11    1    3    3    0    0 -0.71041623730E+01 -0.58921224690E+02  0.11852774642E+02  0.60519981072E+02  0.51100000000E-03 0.  1.
         23    2    1    0    0    0 -0.13736640113E+02 -0.25213046788E+02  0.22062763211E+01  0.96203113621E+02  0.91792038899E+02 0.  0.
         11    1    3    3    0    0 -0.66324777398E+01  0.33708177902E+02 -0.96464983211E+01  0.35683132549E+02  0.51100000000E-03 0. -1.
         22    1    1    0    0    0  0.13736640113E+02  0.25213046788E+02 -0.22062763211E+01  0.28796886379E+02  0.00000000000E+00 0.  1.
</event>
<event>
 5    1  0.1096978E-009  0.9118800E+02  0.7818608E-02  0.1130116E+00
         25   -1    0    0    0    0  0.00000000000E+00  0.00000000000E+00  0.99999998245E-14  0.12500000000E+03  0.12500000000E+03 0.  0.
        -11    1    3    3    0    0 -0.13724330217E+02  0.29889354129E+02  0.84544653358E+01  0.33958926875E+02  0.51100000000E-03 0.  1.
         23    2    1    0    0    0  0.61022923638E+01 -0.26539707996E+02 -0.90914943560E+01  0.96290257015E+02  0.91910631887E+02 0.  0.
         11    1    3    3    0    0  0.19826622581E+02 -0.56429062125E+02 -0.17545959692E+02  0.62331330140E+02  0.51100000000E-03 0. -1.
         22    1    1    0    0    0 -0.61022923638E+01  0.26539707996E+02  0.90914943560E+01  0.28709742985E+02  0.00000000000E+00 0. -1.
</event>
<event>
 5    1  0.1096978E-009  0.9118800E+02  0.7818608E-02  0.1130116E+00
         25   -1    0    0    0    0  0.00000000000E+00  0.00000000000E+00  0.99999998245E-14  0.12500000000E+03  0.12500000000E+03 0.  0.
        -11    1    3    3    0    0  0.10228591925E+02 -0.29620261633E+02  0.21299885238E+02  0.37890224378E+02  0.51100000000E-03 0.  1.
         23    2    1    0    0    0 -0.21707607545E+02 -0.51149080862E+01 -0.19623514964E+02  0.95293690070E+02  0.90545140773E+02 0.  0.
         11    1    3    3    0    0 -0.31936199471E+02  0.24505353547E+02 -0.40923400202E+02  0.57403465692E+02  0.51100000000E-03 0. -1.
         22    1    1    0    0    0  0.21707607545E+02  0.51149080862E+01  0.19623514964E+02  0.29706309930E+02  0.00000000000E+00 0. -1.
</event>
<event>
 5    1  0.1096978E-009  0.9118800E+02  0.7818608E-02  0.1130116E+00
         25   -1    0    0    0    0  0.00000000000E+00  0.00000000000E+00  0.99999998245E-14  0.12500000000E+03  0.12500000000E+03 0.  0.
        -11    1    3    3    0    0 -0.15591446085E+02  0.47789528171E+02 -0.26273320858E+02  0.56720539340E+02  0.51100000000E-03 0. -1.
         23    2    1    0    0    0 -0.15593962181E+02  0.11723929241E+02 -0.25626890718E+02  0.92791931116E+02  0.87022886524E+02 0.  0.
         11    1    3    3    0    0 -0.25160959317E-02 -0.36065598930E+02  0.64643013995E+00  0.36071391776E+02  0.51100000000E-03 0.  1.
         22    1    1    0    0    0  0.15593962181E+02 -0.11723929241E+02  0.25626890718E+02  0.32208068884E+02  0.00000000000E+00 0. -1.
</event>
<event>
 5    1  0.1096978E-009  0.9118800E+02  0.7818608E-02  0.1130116E+00
         25   -1    0    0    0    0  0.00000000000E+00  0.00000000000E+00  0.99999998245E-14  0.12500000000E+03  0.12500000000E+03 0.  0.
        -11    1    3    3    0    0 -0.18811522533E+02  0.26644063783E+02 -0.33287612682E+01  0.32785060114E+02  0.51100000000E-03 0. -1.
         23    2    1    0    0    0  0.15332677670E+02 -0.25374610768E+02  0.23057050014E+01  0.95263185246E+02  0.90503018245E+02 0.  0.
         11    1    3    3    0    0  0.34144200203E+02 -0.52018674551E+02  0.56344662695E+01  0.62478125131E+02  0.51100000000E-03 0.  1.
         22    1    1    0    0    0 -0.15332677670E+02  0.25374610768E+02 -0.23057050014E+01  0.29736814754E+02  0.00000000000E+00 0.  1.
</event>
<event>
 5    1  0.1096978E-009  0.9118800E+02  0.7818608E-02  0.1130116E+00
         25   -1    0    0    0    0  0.00000000000E+00  0.00000000000E+00  0.99999998245E-14  0.12500000000E+03  0.12500000000E+03 0.  0.
        -11    1    3    3    0    0  0.99484872306E+01  0.45639245239E+02  0.30297272598E+02  0.55676187292E+02  0.51100000000E-03 0.  1.
         23    2    1    0    0    0 -0.15375396589E+02  0.22689625857E+02  0.81314137176E+01  0.96410809196E+02  0.92074438901E+02 0.  0.
         11    1    3    3    0    0 -0.25323883819E+02 -0.22949619383E+02 -0.22165858880E+02  0.40734621904E+02  0.51100000000E-03 0. -1.
         22    1    1    0    0    0  0.15375396589E+02 -0.22689625857E+02 -0.81314137176E+01  0.28589190804E+02  0.00000000000E+00 0.  1.
</event>
<event>
 5    1  0.1096978E-009  0.9118800E+02  0.7818608E-02  0.1130116E+00
         25   -1    0    0    0    0  0.00000000000E+00  0.00000000000E+00  0.99999998245E-14  0.12500000000E+03  0.12500000000E+03 0.  0.
        -11    1    3    3    0    0 -0.25855089066E+02 -0.74350865833E+01 -0.32088840586E+02  0.41874333828E+02  0.51100000000E-03 0.  1.
         23    2    1    0    0    0  0.24745389617E+02  0.41491942431E+00 -0.15922950229E+02  0.95571326747E+02  0.90927617843E+02 0.  0.
         11    1    3    3    0    0  0.50600478683E+02  0.78500060076E+01  0.16165890357E+02  0.53696992919E+02  0.51100000000E-03 0. -1.
         22    1    1    0    0    0 -0.24745389617E+02 -0.41491942431E+00  0.15922950229E+02  0.29428673253E+02  0.00000000000E+00 0. -1.
</event>
<event>
 5    1  0.1096978E-009  0.9118800E+02  0.7818608E-02  0.1130116E+00
         25   -1    0    0    0    0  0.00000000000E+00  0.00000000000E+00  0.99999998245E-14  0.12500000000E+03  0.12500000000E+03 0.  0.
        -11    1    3    3    0    0  0.12246624968E+02 -0.39397218740E+00 -0.40285211881E+02  0.42107402363E+02  0.51100000000E-03 0. -1.
         23    2    1    0    0    0  0.13150151302E+02 -0.11940039187E+02  0.16917404263E+02  0.10047063837E+03  0.97430280673E+02 0.  0.
         11    1    3    3    0    0  0.90352633436E+00 -0.11546067000E+02  0.57202616144E+02  0.58363236005E+02  0.51100000000E-03 0.  1.
         22    1    1    0    0    0 -0.13150151302E+02  0.11940039187E+02 -0.16917404263E+02  0.24529361632E+02  0.00000000000E+00 0.  1.
</event>
<event>
 5    1  0.1096978E-009  0.9118800E+02  0.7818608E-02  0.1130116E+00
         25   -1    0    0    0    0  0.00000000000E+00  0.00000000000E+00  0.99999998245E-14  0.12500000000E+03  0.12500000000E+03 0.  0.
        -11    1    3    3    0    0  0.35728164523E+02  0.12209132191E+02 -0.25143957313E+00  0.37757487617E+02  0.51100000000E-03 0. -1.
         23    2    1    0    0    0 -0.11052441559E+02 -0.13902717451E+02  0.22815059019E+02  0.96086872618E+02  0.91633608216E+02 0.  0.
         11    1    3    3    0    0 -0.46780606082E+02 -0.26111849642E+02  0.23066498592E+02  0.58329385002E+02  0.51100000000E-03 0.  1.
         22    1    1    0    0    0  0.11052441559E+02  0.13902717451E+02 -0.22815059019E+02  0.28913127382E+02  0.00000000000E+00 0.  1.
</event>
<event>
 5    1  0.1096978E-009  0.9118800E+02  0.7818608E-02  0.1130116E+00
         25   -1    0    0    0    0  0.00000000000E+00  0.00000000000E+00  0.99999998245E-14  0.12500000000E+03  0.12500000000E+03 0.  0.
        -11    1    3    3    0    0  0.31995349383E+02 -0.33417496910E+02 -0.40499176506E+02  0.61486704090E+02  0.51100000000E-03 0. -1.
         23    2    1    0    0    0  0.24152415870E+02 -0.15964085444E+02 -0.29982645940E+02  0.83320865244E+02  0.72147185053E+02 0.  0.
         11    1    3    3    0    0 -0.78429335128E+01  0.17453411466E+02  0.10516530566E+02  0.21834161154E+02  0.51100000000E-03 0.  1.
         22    1    1    0    0    0 -0.24152415870E+02  0.15964085444E+02  0.29982645940E+02  0.41679134756E+02  0.00000000000E+00 0. -1.
</event>
<event>
 5    1  0.1096978E-009  0.9118800E+02  0.7818608E-02  0.1130116E+00
         25   -1    0    0    0    0  0.00000000000E+00  0.00000000000E+00  0.99999998245E-14  0.12500000000E+03  0.12500000000E+03 0.  0.
        -11    1    3    3    0    0 -0.32684027127E+02  0.58404525965E+00  0.14614210441E+02  0.35807288157E+02  0.51100000000E-03 0.  1.
         23    2    1    0    0    0  0.27579585629E+02  0.17436379024E+01  0.28567192012E+01  0.97218087517E+02  0.93163951608E+02 0.  0.
         11    1    3    3    0    0  0.60263612756E+02  0.11595926427E+01 -0.11757491240E+02  0.61410799360E+02  0.51100000000E-03 0. -1.
         22    1    1    0    0    0 -0.27579585629E+02 -0.17436379024E+01 -0.28567192012E+01  0.27781912483E+02  0.00000000000E+00 0. -1.
</event>
<event>
 5    1  0.1096978E-009  0.9118800E+02  0.7818608E-02  0.1130116E+00
         25   -1    0    0    0    0  0.00000000000E+00  0.00000000000E+00  0.99999998245E-14  0.12500000000E+03  0.12500000000E+03 0.  0.
        -11    1    3    3    0    0  0.34404788666E+02 -0.15432699218E+02 -0.28922978501E+02  0.47522588039E+02  0.51100000000E-03 0.  1.
         23    2    1    0    0    0  0.81173118716E+01 -0.23278406468E+02  0.12618720003E+02  0.97305107796E+02  0.93280635444E+02 0.  0.
         11    1    3    3    0    0 -0.26287476795E+02 -0.78457072494E+01  0.41541698504E+02  0.49782519757E+02  0.51100000000E-03 0. -1.
         22    1    1    0    0    0 -0.81173118716E+01  0.23278406468E+02 -0.12618720003E+02  0.27694892204E+02  0.00000000000E+00 0. -1.
</event>
<event>
 5    1  0.1096978E-009  0.9118800E+02  0.7818608E-02  0.1130116E+00
         25   -1    0    0    0    0  0.00000000000E+00  0.00000000000E+00  0.99999998245E-14  0.12500000000E+03  0.12500000000E+03 0.  0.
        -11    1    3    3    0    0 -0.39100833217E+02 -0.36327107672E+02 -0.19316647392E+02  0.56759728477E+02  0.51100000000E-03 0. -1.
         23    2    1    0    0    0 -0.20252499301E+02 -0.10214503220E+01 -0.19621575024E+02  0.96782748271E+02  0.92578005313E+02 0.  0.
         11    1    3    3    0    0  0.18848333915E+02  0.35305657350E+02 -0.30492763245E+00  0.40023019794E+02  0.51100000000E-03 0.  1.
         22    1    1    0    0    0  0.20252499301E+02  0.10214503220E+01  0.19621575024E+02  0.28217251729E+02  0.00000000000E+00 0. -1.
</event>
<event>
 5    1  0.1096978E-009  0.9118800E+02  0.7818608E-02  0.1130116E+00
         25   -1    0    0    0    0  0.00000000000E+00  0.00000000000E+00  0.99999998245E-14  0.12500000000E+03  0.12500000000E+03 0.  0.
        -11    1    3    3    0    0 -0.41510555471E+02 -0.78976432533E+01 -0.19615262548E+02  0.46586022684E+02  0.51100000000E-03 0. -1.
         23    2    1    0    0    0  0.58580632187E+01 -0.82435281112E+01 -0.28479589769E+02  0.94778158663E+02  0.89830616528E+02 0.  0.
         11    1    3    3    0    0  0.47368618690E+02 -0.34588485790E+00 -0.88643272206E+01  0.48192135979E+02  0.51100000000E-03 0.  1.
         22    1    1    0    0    0 -0.58580632187E+01  0.82435281112E+01  0.28479589769E+02  0.30221841337E+02  0.00000000000E+00 0.  1.
</event>
<event>
 5    1  0.1096978E-009  0.9118800E+02  0.7818608E-02  0.1130116E+00
         25   -1    0    0    0    0  0.00000000000E+00  0.00000000000E+00  0.99999998245E-14  0.12500000000E+03  0.12500000000E+03 0.  0.
        -11    1    3    3    0    0 -0.34605869518E+02 -0.24862988266E+02 -0.65582992757E+01  0.43113172932E+02  0.51100000000E-03 0.  1.
         23    2    1    0    0    0 -0.15539796164E+02  0.19587043305E+02  0.14755755518E+02  0.95967779087E+02  0.91471005088E+02 0.  0.
         11    1    3    3    0    0  0.19066073354E+02  0.44450031571E+02  0.21314054794E+02  0.52854606155E+02  0.51100000000E-03 0. -1.
         22    1    1    0    0    0  0.15539796164E+02 -0.19587043305E+02 -0.14755755518E+02  0.29032220913E+02  0.00000000000E+00 0.  1.
</event>
<event>
 5    1  0.1096978E-009  0.9118800E+02  0.7818608E-02  0.1130116E+00
         25   -1    0    0    0    0  0.00000000000E+00  0.00000000000E+00  0.99999998245E-14  0.12500000000E+03  0.12500000000E+03 0.  0.
        -11    1    3    3    0    0  0.94430185761E-01  0.37078220868E+02  0.20568106773E+02  0.42401065980E+02  0.51100000000E-03 0.  1.
         23    2    1    0    0    0  0.18799677075E+02  0.89557332563E+01 -0.20638806603E+02  0.95681177475E+02  0.91078506623E+02 0.  0.
         11    1    3    3    0    0  0.18705246889E+02 -0.28122487612E+02 -0.41206913376E+02  0.53280111494E+02  0.51100000000E-03 0. -1.
         22    1    1    0    0    0 -0.18799677075E+02 -0.89557332563E+01  0.20638806603E+02  0.29318822525E+02  0.00000000000E+00 0. -1.
</event>
<event>
 5    1  0.1096978E-009  0.9118800E+02  0.7818608E-02  0.1130116E+00
         25   -1    0    0    0    0  0.00000000000E+00  0.00000000000E+00  0.99999998245E-14  0.12500000000E+03  0.12500000000E+03 0.  0.
        -11    1    3    3    0    0 -0.29005595472E+01 -0.30543051911E+02  0.14170017123E+02  0.33794683772E+02  0.51100000000E-03 0. -1.
         23    2    1    0    0    0  0.19347251024E+02  0.15735719174E+02 -0.17870405779E+02  0.94319706931E+02  0.89190395967E+02 0.  0.
         11    1    3    3    0    0  0.22247810571E+02  0.46278771085E+02 -0.32040422902E+02  0.60525023159E+02  0.51100000000E-03 0.  1.
         22    1    1    0    0    0 -0.19347251024E+02 -0.15735719174E+02  0.17870405779E+02  0.30680293069E+02  0.00000000000E+00 0.  1.
</event>
<event>
 5    1  0.1096978E-009  0.9118800E+02  0.7818608E-02  0.1130116E+00
         25   -1    0    0    0    0  0.00000000000E+00  0.00000000000E+00  0.99999998245E-14  0.12500000000E+03  0.12500000000E+03 0.  0.
        -11    1    3    3    0    0  0.61145495710E+01  0.28837388306E+01  0.17375220453E+02  0.18644086251E+02  0.51100000000E-03 0.  1.
         23    2    1    0    0    0  0.43624209915E+02  0.35497862159E+01 -0.24479394173E+02  0.74851087630E+02  0.55567723612E+02 0.  0.
         11    1    3    3    0    0  0.37509660344E+02  0.66604738529E+00 -0.41854614626E+02  0.56207001378E+02  0.51100000000E-03 0. -1.
         22    1    1    0    0    0 -0.43624209915E+02 -0.35497862159E+01  0.24479394173E+02  0.50148912370E+02  0.00000000000E+00 0. -1.
</event>
<event>
 5    1  0.1096978E-009  0.9118800E+02  0.7818608E-02  0.1130116E+00
         25   -1    0    0    0    0  0.00000000000E+00  0.00000000000E+00  0.99999998245E-14  0.12500000000E+03  0.12500000000E+03 0.  0.
        -11    1    3    3    0    0  0.41322415759E+02 -0.19131153195E+02 -0.10285667508E+02  0.46683380588E+02  0.51100000000E-03 0. -1.
         23    2    1    0    0    0 -0.80670320452E+01 -0.13877435907E+02 -0.22050433620E+02  0.97725802373E+02  0.93842690676E+02 0.  0.
         11    1    3    3    0    0 -0.49389447805E+02  0.52537172880E+01 -0.11764766112E+02  0.51042421785E+02  0.51100000000E-03 0.  1.
         22    1    1    0    0    0  0.80670320452E+01  0.13877435907E+02  0.22050433620E+02  0.27274197627E+02  0.00000000000E+00 0. -1.
</event>
<event>
 5    1  0.1096978E-009  0.9118800E+02  0.7818608E-02  0.1130116E+00
         25   -1    0    0    0    0  0.00000000000E+00  0.00000000000E+00  0.99999998245E-14  0.12500000000E+03  0.12500000000E+03 0.  0.
        -11    1    3    3    0    0  0.23402800438E+02  0.16787590492E+02 -0.17973118713E+02  0.33949186432E+02  0.51100000000E-03 0. -1.
         23    2    1    0    0    0  0.13371216173E+01 -0.37898116725E+01  0.32229593722E+02  0.92520817771E+02  0.86632583032E+02 0.  0.
         11    1    3    3    0    0 -0.22065678821E+02 -0.20577402164E+02  0.50202712435E+02  0.58571631339E+02  0.51100000000E-03 0.  1.
         22    1    1    0    0    0 -0.13371216173E+01  0.37898116725E+01 -0.32229593722E+02  0.32479182229E+02  0.00000000000E+00 0.  1.
</event>
<event>
 5    1  0.1096978E-009  0.9118800E+02  0.7818608E-02  0.1130116E+00
         25   -1    0    0    0    0  0.00000000000E+00  0.00000000000E+00  0.99999998245E-14  0.12500000000E+03  0.12500000000E+03 0.  0.
        -11    1    3    3    0    0  0.18777131402E+02  0.36199110775E+02  0.32881336929E+02  0.52384526371E+02  0.51100000000E-03 0.  1.
         23    2    1    0    0    0  0.25572510694E+02  0.86758341013E+01 -0.26799166413E+01  0.97863210327E+02  0.94025542177E+02 0.  0.
         11    1    3    3    0    0  0.67953792920E+01 -0.27523276674E+02 -0.35561253570E+02  0.45478683956E+02  0.51100000000E-03 0. -1.
         22    1    1    0    0    0 -0.25572510694E+02 -0.86758341013E+01  0.26799166413E+01  0.27136789673E+02  0.00000000000E+00 0. -1.
</event>
<event>
 5    1  0.1096978E-009  0.9118800E+02  0.7818608E-02  0.1130116E+00
         25   -1    0    0    0    0  0.00000000000E+00  0.00000000000E+00  0.99999998245E-14  0.12500000000E+03  0.12500000000E+03 0.  0.
        -11    1    3    3    0    0 -0.49187602056E+01  0.52630068485E+02  0.25999885301E+02  0.58907659490E+02  0.51100000000E-03 0.  1.
         23    2    1    0    0    0 -0.15784988066E+02  0.18826000008E+02  0.15563569603E+02  0.95917207436E+02  0.91401870106E+02 0.  0.
         11    1    3    3    0    0 -0.10866227860E+02 -0.33804068477E+02 -0.10436315698E+02  0.37009547945E+02  0.51100000000E-03 0. -1.
         22    1    1    0    0    0  0.15784988066E+02 -0.18826000008E+02 -0.15563569603E+02  0.29082792564E+02  0.00000000000E+00 0.  1.
</event>
<event>
 5    1  0.1096978E-009  0.9118800E+02  0.7818608E-02  0.1130116E+00
         25   -1    0    0    0    0  0.00000000000E+00  0.00000000000E+00  0.99999998245E-14  0.12500000000E+03  0.12500000000E+03 0.  0.
        -11    1    3    3    0    0 -0.39761706929E+02  0.22764869752E+02 -0.28947479123E+02  0.54195840990E+02  0.51100000000E-03 0.  1.
         23    2    1    0    0    0 -0.27611609186E+02 -0.57234309130E+01  0.30804676505E+00  0.96799760355E+02  0.92600972396E+02 0.  0.
         11    1    3    3    0    0  0.12150097743E+02 -0.28488300665E+02  0.29255525888E+02  0.42603919365E+02  0.51100000000E-03 0. -1.
         22    1    1    0    0    0  0.27611609186E+02  0.57234309130E+01 -0.30804676505E+00  0.28200239645E+02  0.00000000000E+00 0.  1.
</event>
<event>
 5    1  0.1096978E-009  0.9118800E+02  0.7818608E-02  0.1130116E+00
         25   -1    0    0    0    0  0.00000000000E+00  0.00000000000E+00  0.99999998245E-14  0.12500000000E+03  0.12500000000E+03 0.  0.
        -11    1    3    3    0    0 -0.49454649590E+02  0.32828200664E+02 -0.15914512342E+02  0.61455063487E+02  0.51100000000E-03 0.  1.
         23    2    1    0    0    0 -0.25053887742E+02  0.90028394094E+01 -0.12052643126E+02  0.95776471555E+02  0.91209198488E+02 0.  0.
         11    1    3    3    0    0  0.24400761847E+02 -0.23825361255E+02  0.38618692163E+01  0.34321408068E+02  0.51100000000E-03 0. -1.
         22    1    1    0    0    0  0.25053887742E+02 -0.90028394094E+01  0.12052643126E+02  0.29223528445E+02  0.00000000000E+00 0.  1.
</event>
<event>
 5    1  0.1096978E-009  0.9118800E+02  0.7818608E-02  0.1130116E+00
         25   -1    0    0    0    0  0.00000000000E+00  0.00000000000E+00  0.99999998245E-14  0.12500000000E+03  0.12500000000E+03 0.  0.
        -11    1    3    3    0    0 -0.27165473079E+02  0.12370121558E+02 -0.50054349443E+02  0.58278818908E+02  0.51100000000E-03 0. -1.
         23    2    1    0    0    0  0.33843785023E+01  0.53619259185E+01 -0.27202768501E+02  0.97068031192E+02  0.92962399915E+02 0.  0.
         11    1    3    3    0    0  0.30549851581E+02 -0.70081956395E+01  0.22851580942E+02  0.38789212283E+02  0.51100000000E-03 0.  1.
         22    1    1    0    0    0 -0.33843785023E+01 -0.53619259185E+01  0.27202768501E+02  0.27931968808E+02  0.00000000000E+00 0. -1.
</event>
<event>
 5    1  0.1096978E-009  0.9118800E+02  0.7818608E-02  0.1130116E+00
         25   -1    0    0    0    0  0.00000000000E+00  0.00000000000E+00  0.99999998245E-14  0.12500000000E+03  0.12500000000E+03 0.  0.
        -11    1    3    3    0    0  0.37558226618E+02 -0.88095890243E+01  0.34354941672E+02  0.51657441507E+02  0.51100000000E-03 0. -1.
         23    2    1    0    0    0 -0.35224861769E+01  0.11605935055E+01  0.30687168678E+02  0.94089529159E+02  0.88867217182E+02 0.  0.
         11    1    3    3    0    0 -0.41080712795E+02  0.99701825298E+01 -0.36677729942E+01  0.42432087651E+02  0.51100000000E-03 0.  1.
         22    1    1    0    0    0  0.35224861769E+01 -0.11605935055E+01 -0.30687168678E+02  0.30910470841E+02  0.00000000000E+00 0. -1.
</event>
<event>
 5    1  0.1096978E-009  0.9118800E+02  0.7818608E-02  0.1130116E+00
         25   -1    0    0    0    0  0.00000000000E+00  0.00000000000E+00  0.99999998245E-14  0.12500000000E+03  0.12500000000E+03 0.  0.
        -11    1    3    3    0    0 -0.81864903109E+01 -0.33903170025E+02 -0.20640358770E+02  0.40527373117E+02  0.51100000000E-03 0. -1.
         23    2    1    0    0    0  0.27036313311E+02  0.69874324232E+01 -0.61959898300E+01  0.96396211103E+02  0.92054618437E+02 0.  0.
         11    1    3    3    0    0  0.35222803622E+02  0.40890602448E+02  0.14444368940E+02  0.55868837986E+02  0.51100000000E-03 0.  1.
         22    1    1    0    0    0 -0.27036313311E+02 -0.69874324232E+01  0.61959898300E+01  0.28603788897E+02  0.00000000000E+00 0.  1.
</event>
<event>
 5    1  0.1096978E-009  0.9118800E+02  0.7818608E-02  0.1130116E+00
         25   -1    0    0    0    0  0.00000000000E+00  0.00000000000E+00  0.99999998245E-14  0.12500000000E+03  0.12500000000E+03 0.  0.
        -11    1    3    3    0    0  0.18531734572E+02 -0.14802430821E+01 -0.76547156489E+01  0.20104998825E+02  0.51100000000E-03 0. -1.
         23    2    1    0    0    0 -0.38281348775E+02 -0.10804091569E+02  0.15702963890E+02  0.82235842887E+02  0.70242157724E+02 0.  0.
         11    1    3    3    0    0 -0.56813083348E+02 -0.93238484868E+01  0.23357679539E+02  0.62130844061E+02  0.51100000000E-03 0.  1.
         22    1    1    0    0    0  0.38281348775E+02  0.10804091569E+02 -0.15702963890E+02  0.42764157113E+02  0.00000000000E+00 0.  1.
</event>
<event>
 5    1  0.1096978E-009  0.9118800E+02  0.7818608E-02  0.1130116E+00
         25   -1    0    0    0    0  0.00000000000E+00  0.00000000000E+00  0.99999998245E-14  0.12500000000E+03  0.12500000000E+03 0.  0.
        -11    1    3    3    0    0 -0.31505069459E+02 -0.20326031719E+02 -0.40841123161E+02  0.55441088629E+02  0.51100000000E-03 0. -1.
         23    2    1    0    0    0  0.22541331686E+01 -0.22103577684E+02 -0.19644314259E+02  0.95342819664E+02  0.90612940113E+02 0.  0.
         11    1    3    3    0    0  0.33759202628E+02 -0.17775459645E+01  0.21196808901E+02  0.39901731035E+02  0.51100000000E-03 0.  1.
         22    1    1    0    0    0 -0.22541331686E+01  0.22103577684E+02  0.19644314259E+02  0.29657180336E+02  0.00000000000E+00 0. -1.
</event>
<event>
 5    1  0.1096978E-009  0.9118800E+02  0.7818608E-02  0.1130116E+00
         25   -1    0    0    0    0  0.00000000000E+00  0.00000000000E+00  0.99999998245E-14  0.12500000000E+03  0.12500000000E+03 0.  0.
        -11    1    3    3    0    0  0.13730920587E+02  0.43450117956E+02 -0.17342552956E+02  0.48756692606E+02  0.51100000000E-03 0. -1.
         23    2    1    0    0    0 -0.77925491377E+01  0.20330063451E+01 -0.27346266836E+02  0.96492540507E+02  0.92185330324E+02 0.  0.
         11    1    3    3    0    0 -0.21523469725E+02 -0.41417111611E+02 -0.10003713880E+02  0.47735847901E+02  0.51100000000E-03 0.  1.
         22    1    1    0    0    0  0.77925491377E+01 -0.20330063451E+01  0.27346266836E+02  0.28507459493E+02  0.00000000000E+00 0.  1.
</event>
<event>
 5    1  0.1096978E-009  0.9118800E+02  0.7818608E-02  0.1130116E+00
         25   -1    0    0    0    0  0.00000000000E+00  0.00000000000E+00  0.99999998245E-14  0.12500000000E+03  0.12500000000E+03 0.  0.
        -11    1    3    3    0    0 -0.17691133271E+02 -0.47142320811E+01  0.41271989827E+02  0.45150607140E+02  0.51100000000E-03 0. -1.
         23    2    1    0    0    0 -0.18117458847E+02 -0.21910650612E+02 -0.64227992851E+01  0.95852594010E+02  0.91313462876E+02 0.  0.
         11    1    3    3    0    0 -0.42632557627E+00 -0.17196418531E+02 -0.47694789113E+02  0.50701986870E+02  0.51100000000E-03 0.  1.
         22    1    1    0    0    0  0.18117458847E+02  0.21910650612E+02  0.64227992851E+01  0.29147405990E+02  0.00000000000E+00 0. -1.
</event>
<event>
 5    1  0.1096978E-009  0.9118800E+02  0.7818608E-02  0.1130116E+00
         25   -1    0    0    0    0  0.00000000000E+00  0.00000000000E+00  0.99999998245E-14  0.12500000000E+03  0.12500000000E+03 0.  0.
        -11    1    3    3    0    0  0.21116041420E+02 -0.29212908187E+02  0.53973322716E+01  0.36447392307E+02  0.51100000000E-03 0. -1.
         23    2    1    0    0    0  0.34110322095E+01  0.26401924777E+02  0.13120127886E+02  0.95321143412E+02  0.90583032919E+02 0.  0.
         11    1    3    3    0    0 -0.17705009211E+02  0.55614832964E+02  0.77227956147E+01  0.58873751105E+02  0.51100000000E-03 0.  1.
         22    1    1    0    0    0 -0.34110322095E+01 -0.26401924777E+02 -0.13120127886E+02  0.29678856588E+02  0.00000000000E+00 0.  1.
</event>
<event>
 5    1  0.1096978E-009  0.9118800E+02  0.7818608E-02  0.1130116E+00
         25   -1    0    0    0    0  0.00000000000E+00  0.00000000000E+00  0.99999998245E-14  0.12500000000E+03  0.12500000000E+03 0.  0.
        -11    1    3    3    0    0  0.17101845903E+02  0.31701562793E+01  0.28593918336E+02  0.33468420790E+02  0.51100000000E-03 0.  1.
         23    2    1    0    0    0 -0.96982172084E+01  0.41518218212E+00 -0.27576073680E+02  0.95765300876E+02  0.91193888057E+02 0.  0.
         11    1    3    3    0    0 -0.26800063111E+02 -0.27549740972E+01 -0.56169992016E+02  0.62296880086E+02  0.51100000000E-03 0. -1.
         22    1    1    0    0    0  0.96982172084E+01 -0.41518218212E+00  0.27576073680E+02  0.29234699124E+02  0.00000000000E+00 0. -1.
</event>
<event>
 5    1  0.1096978E-009  0.9118800E+02  0.7818608E-02  0.1130116E+00
         25   -1    0    0    0    0  0.00000000000E+00  0.00000000000E+00  0.99999998245E-14  0.12500000000E+03  0.12500000000E+03 0.  0.
        -11    1    3    3    0    0 -0.18798728126E+02  0.23104087858E+02 -0.98301575277E+01  0.31365953711E+02  0.51100000000E-03 0. -1.
         23    2    1    0    0    0  0.13717400121E+02  0.29510282496E+02 -0.38076769817E+02  0.74911436048E+02  0.55703312397E+02 0.  0.
         11    1    3    3    0    0  0.32516128247E+02  0.64061946377E+01 -0.28246612289E+02  0.43545482337E+02  0.51100000000E-03 0.  1.
         22    1    1    0    0    0 -0.13717400121E+02 -0.29510282496E+02  0.38076769817E+02  0.50088563952E+02  0.00000000000E+00 0.  1.
</event>
<event>
 5    1  0.1096978E-009  0.9118800E+02  0.7818608E-02  0.1130116E+00
         25   -1    0    0    0    0  0.00000000000E+00  0.00000000000E+00  0.99999998245E-14  0.12500000000E+03  0.12500000000E+03 0.  0.
        -11    1    3    3    0    0 -0.12760216005E+02 -0.29527176198E+02  0.11382214647E+02  0.34120844908E+02  0.51100000000E-03 0. -1.
         23    2    1    0    0    0 -0.53803032506E+00  0.16849961205E+02 -0.25366881770E+02  0.94542006633E+02  0.89501405901E+02 0.  0.
         11    1    3    3    0    0  0.12222185680E+02  0.46377137403E+02 -0.36749096417E+02  0.60421161725E+02  0.51100000000E-03 0.  1.
         22    1    1    0    0    0  0.53803032506E+00 -0.16849961205E+02  0.25366881770E+02  0.30457993367E+02  0.00000000000E+00 0.  1.
</event>
<event>
 5    1  0.1096978E-009  0.9118800E+02  0.7818608E-02  0.1130116E+00
         25   -1    0    0    0    0  0.00000000000E+00  0.00000000000E+00  0.99999998245E-14  0.12500000000E+03  0.12500000000E+03 0.  0.
        -11    1    3    3    0    0 -0.12430932117E+01 -0.42889857378E+02 -0.22755609527E+02  0.48568538292E+02  0.51100000000E-03 0.  1.
         23    2    1    0    0    0  0.62955423848E+01 -0.21044880655E+02  0.18780001261E+02  0.96100012058E+02  0.91651530345E+02 0.  0.
         11    1    3    3    0    0  0.75386355965E+01  0.21844976723E+02  0.41535610787E+02  0.47531473766E+02  0.51100000000E-03 0. -1.
         22    1    1    0    0    0 -0.62955423848E+01  0.21044880655E+02 -0.18780001261E+02  0.28899987942E+02  0.00000000000E+00 0. -1.
</event>
<event>
 5    1  0.1096978E-009  0.9118800E+02  0.7818608E-02  0.1130116E+00
         25   -1    0    0    0    0  0.00000000000E+00  0.00000000000E+00  0.99999998245E-14  0.12500000000E+03  0.12500000000E+03 0.  0.
        -11    1    3    3    0    0 -0.21626490473E+02  0.13289770275E+02  0.16729964091E+02  0.30400901021E+02  0.51100000000E-03 0. -1.
         23    2    1    0    0    0  0.24213428881E+02 -0.22313311313E+02  0.15867469438E+02  0.88449342191E+02  0.80543997589E+02 0.  0.
         11    1    3    3    0    0  0.45839919354E+02 -0.35603081588E+02 -0.86249465321E+00  0.58048441170E+02  0.51100000000E-03 0.  1.
         22    1    1    0    0    0 -0.24213428881E+02  0.22313311313E+02 -0.15867469438E+02  0.36550657809E+02  0.00000000000E+00 0.  1.
</event>
<event>
 5    1  0.1096978E-009  0.9118800E+02  0.7818608E-02  0.1130116E+00
         25   -1    0    0    0    0  0.00000000000E+00  0.00000000000E+00  0.99999998245E-14  0.12500000000E+03  0.12500000000E+03 0.  0.
        -11    1    3    3    0    0 -0.21549920722E+02 -0.22343941011E+02  0.19504546152E+02  0.36661670773E+02  0.51100000000E-03 0.  1.
         23    2    1    0    0    0  0.24929492680E+02 -0.27093940690E+02  0.19400768746E+02  0.83383283943E+02  0.72255248846E+02 0.  0.
         11    1    3    3    0    0  0.46479413402E+02 -0.47499996794E+01 -0.10377740589E+00  0.46721613170E+02  0.51100000000E-03 0. -1.
         22    1    1    0    0    0 -0.24929492680E+02  0.27093940690E+02 -0.19400768746E+02  0.41616716057E+02  0.00000000000E+00 0. -1.
</event>
<event>
 5    1  0.1096978E-009  0.9118800E+02  0.7818608E-02  0.1130116E+00
         25   -1    0    0    0    0  0.00000000000E+00  0.00000000000E+00  0.99999998245E-14  0.12500000000E+03  0.12500000000E+03 0.  0.
        -11    1    3    3    0    0 -0.45489945424E+02  0.26848094450E+02  0.13758426494E+02  0.54584334842E+02  0.51100000000E-03 0.  1.
         23    2    1    0    0    0 -0.28657672024E+02 -0.83022370055E+01  0.30071877302E+01  0.95012794675E+02  0.90156523163E+02 0.  0.
         11    1    3    3    0    0  0.16832273400E+02 -0.35150331456E+02 -0.10751238764E+02  0.40428459833E+02  0.51100000000E-03 0. -1.
         22    1    1    0    0    0  0.28657672024E+02  0.83022370055E+01 -0.30071877302E+01  0.29987205325E+02  0.00000000000E+00 0.  1.
</event>
<event>
 5    1  0.1096978E-009  0.9118800E+02  0.7818608E-02  0.1130116E+00
         25   -1    0    0    0    0  0.00000000000E+00  0.00000000000E+00  0.99999998245E-14  0.12500000000E+03  0.12500000000E+03 0.  0.
        -11    1    3    3    0    0  0.28354055358E+02 -0.35421484386E+01  0.54376626688E+02  0.61427329431E+02  0.51100000000E-03 0. -1.
         23    2    1    0    0    0  0.11999806850E+02 -0.97106870609E+01  0.26570484451E+02  0.94270804573E+02  0.89121833145E+02 0.  0.
         11    1    3    3    0    0 -0.16354248508E+02 -0.61685386223E+01 -0.27806142237E+02  0.32843475141E+02  0.51100000000E-03 0.  1.
         22    1    1    0    0    0 -0.11999806850E+02  0.97106870609E+01 -0.26570484451E+02  0.30729195427E+02  0.00000000000E+00 0. -1.
</event>
<event>
 5    1  0.1096978E-009  0.9118800E+02  0.7818608E-02  0.1130116E+00
         25   -1    0    0    0    0  0.00000000000E+00  0.00000000000E+00  0.99999998245E-14  0.12500000000E+03  0.12500000000E+03 0.  0.
        -11    1    3    3    0    0  0.46951878998E+02 -0.85470944941E+01  0.16163783319E+02  0.50386502729E+02  0.51100000000E-03 0.  1.
         23    2    1    0    0    0  0.14813399688E+02 -0.20975334221E+02 -0.13620416526E+02  0.95932540490E+02  0.91422836986E+02 0.  0.
         11    1    3    3    0    0 -0.32138479310E+02 -0.12428239727E+02 -0.29784199845E+02  0.45546037761E+02  0.51100000000E-03 0. -1.
         22    1    1    0    0    0 -0.14813399688E+02  0.20975334221E+02  0.13620416526E+02  0.29067459510E+02  0.00000000000E+00 0. -1.
</event>
<event>
 5    1  0.1096978E-009  0.9118800E+02  0.7818608E-02  0.1130116E+00
         25   -1    0    0    0    0  0.00000000000E+00  0.00000000000E+00  0.99999998245E-14  0.12500000000E+03  0.12500000000E+03 0.  0.
        -11    1    3    3    0    0  0.76339739932E+01  0.49214234878E+02 -0.35154509686E+02  0.60960298761E+02  0.51100000000E-03 0.  1.
         23    2    1    0    0    0  0.38089539149E+01  0.16451960626E+02 -0.23744467268E+02  0.95862826764E+02  0.91327469531E+02 0.  0.
         11    1    3    3    0    0 -0.38250200783E+01 -0.32762274251E+02  0.11410042418E+02  0.34902528003E+02  0.51100000000E-03 0. -1.
         22    1    1    0    0    0 -0.38089539149E+01 -0.16451960626E+02  0.23744467268E+02  0.29137173236E+02  0.00000000000E+00 0.  1.
</event>
<event>
 5    1  0.1096978E-009  0.9118800E+02  0.7818608E-02  0.1130116E+00
         25   -1    0    0    0    0  0.00000000000E+00  0.00000000000E+00  0.99999998245E-14  0.12500000000E+03  0.12500000000E+03 0.  0.
        -11    1    3    3    0    0 -0.50652972973E+02 -0.17879680670E+02 -0.28751097272E+02  0.60926449482E+02  0.51100000000E-03 0. -1.
         23    2    1    0    0    0 -0.26144183824E+02 -0.26624290850E+01 -0.51012901079E+01  0.98230053470E+02  0.94511974731E+02 0.  0.
         11    1    3    3    0    0  0.24508789149E+02  0.15217251585E+02  0.23649807164E+02  0.37303603988E+02  0.51100000000E-03 0.  1.
         22    1    1    0    0    0  0.26144183824E+02  0.26624290850E+01  0.51012901079E+01  0.26769946530E+02  0.00000000000E+00 0. -1.
</event>
<event>
 5    1  0.1096978E-009  0.9118800E+02  0.7818608E-02  0.1130116E+00
         25   -1    0    0    0    0  0.00000000000E+00  0.00000000000E+00  0.99999998245E-14  0.12500000000E+03  0.12500000000E+03 0.  0.
        -11    1    3    3    0    0 -0.22564848825E+02  0.28514551556E+02 -0.25632153452E+02  0.44488867639E+02  0.51100000000E-03 0. -1.
         23    2    1    0    0    0 -0.26233394153E+02 -0.51708531307E+01  0.12485803550E+02  0.95490273109E+02  0.90816123443E+02 0.  0.
         11    1    3    3    0    0 -0.36685453288E+01 -0.33685404686E+02  0.38117957002E+02  0.51001405471E+02  0.51100000000E-03 0.  1.
         22    1    1    0    0    0  0.26233394153E+02  0.51708531307E+01 -0.12485803550E+02  0.29509726891E+02  0.00000000000E+00 0.  1.
</event>
<event>
 5    1  0.1096978E-009  0.9118800E+02  0.7818608E-02  0.1130116E+00
         25   -1    0    0    0    0  0.00000000000E+00  0.00000000000E+00  0.99999998245E-14  0.12500000000E+03  0.12500000000E+03 0.  0.
        -11    1    3    3    0    0  0.55403003611E+02  0.18435845733E+02 -0.45305867709E+01  0.58565343282E+02  0.51100000000E-03 0.  1.
         23    2    1    0    0    0  0.27194720573E+02 -0.71712907739E+01 -0.32976385187E+01  0.96682961698E+02  0.92443174029E+02 0.  0.
         11    1    3    3    0    0 -0.28208283038E+02 -0.25607136507E+02  0.12329482522E+01  0.38117618416E+02  0.51100000000E-03 0. -1.
         22    1    1    0    0    0 -0.27194720573E+02  0.71712907739E+01  0.32976385187E+01  0.28317038302E+02  0.00000000000E+00 0.  1.
</event>
<event>
 5    1  0.1096978E-009  0.9118800E+02  0.7818608E-02  0.1130116E+00
         25   -1    0    0    0    0  0.00000000000E+00  0.00000000000E+00  0.99999998245E-14  0.12500000000E+03  0.12500000000E+03 0.  0.
        -11    1    3    3    0    0 -0.33540475515E+02 -0.16958327072E+02  0.92097727844E+01  0.38695843056E+02  0.51100000000E-03 0.  1.
         23    2    1    0    0    0  0.18827368731E+02 -0.17136879024E+02 -0.13965020188E+02  0.95962709753E+02  0.91464077311E+02 0.  0.
         11    1    3    3    0    0  0.52367844246E+02 -0.17855195239E+00 -0.23174792972E+02  0.57266866697E+02  0.51100000000E-03 0. -1.
         22    1    1    0    0    0 -0.18827368731E+02  0.17136879024E+02  0.13965020188E+02  0.29037290247E+02  0.00000000000E+00 0. -1.
</event>
<event>
 5    1  0.1096978E-009  0.9118800E+02  0.7818608E-02  0.1130116E+00
         25   -1    0    0    0    0  0.00000000000E+00  0.00000000000E+00  0.99999998245E-14  0.12500000000E+03  0.12500000000E+03 0.  0.
        -11    1    3    3    0    0  0.48342940540E+02  0.59340272839E+01 -0.20514284786E+02  0.52849677959E+02  0.51100000000E-03 0. -1.
         23    2    1    0    0    0  0.15045672322E+02  0.25655498137E+02 -0.37553604396E+01  0.95022015207E+02  0.90169306317E+02 0.  0.
         11    1    3    3    0    0 -0.33297268218E+02  0.19721470853E+02  0.16758924346E+02  0.42172337247E+02  0.51100000000E-03 0.  1.
         22    1    1    0    0    0 -0.15045672322E+02 -0.25655498137E+02  0.37553604396E+01  0.29977984793E+02  0.00000000000E+00 0. -1.
</event>
<event>
 5    1  0.1096978E-009  0.9118800E+02  0.7818608E-02  0.1130116E+00
         25   -1    0    0    0    0  0.00000000000E+00  0.00000000000E+00  0.99999998245E-14  0.12500000000E+03  0.12500000000E+03 0.  0.
        -11    1    3    3    0    0 -0.10368515951E+02 -0.22197834394E+02 -0.45931652228E+02  0.52057340034E+02  0.51100000000E-03 0.  1.
         23    2    1    0    0    0 -0.81799313873E+01 -0.26853120699E+02 -0.13908545797E+01  0.96894202640E+02  0.92728370308E+02 0.  0.
         11    1    3    3    0    0  0.21885845634E+01 -0.46552863052E+01  0.44540797648E+02  0.44836862606E+02  0.51100000000E-03 0. -1.
         22    1    1    0    0    0  0.81799313873E+01  0.26853120699E+02  0.13908545797E+01  0.28105797360E+02  0.00000000000E+00 0.  1.
</event>
<event>
 5    1  0.1096978E-009  0.9118800E+02  0.7818608E-02  0.1130116E+00
         25   -1    0    0    0    0  0.00000000000E+00  0.00000000000E+00  0.99999998245E-14  0.12500000000E+03  0.12500000000E+03 0.  0.
        -11    1    3    3    0    0  0.28317230297E+02 -0.33026416548E+02  0.14412201376E+02  0.45829262163E+02  0.51100000000E-03 0.  1.
         23    2    1    0    0    0  0.21897518569E+02  0.39149594023E+01 -0.18766736330E+02  0.95896415701E+02  0.91373431178E+02 0.  0.
         11    1    3    3    0    0 -0.64197117278E+01  0.36941375950E+02 -0.33178937706E+02  0.50067153537E+02  0.51100000000E-03 0. -1.
         22    1    1    0    0    0 -0.21897518569E+02 -0.39149594023E+01  0.18766736330E+02  0.29103584299E+02  0.00000000000E+00 0. -1.
</event>
<event>
 5    1  0.1096978E-009  0.9118800E+02  0.7818608E-02  0.1130116E+00
         25   -1    0    0    0    0  0.00000000000E+00  0.00000000000E+00  0.99999998245E-14  0.12500000000E+03  0.12500000000E+03 0.  0.
        -11    1    3    3    0    0  0.11036887211E+02 -0.21716905279E+01  0.34296249751E+02  0.36093792629E+02  0.51100000000E-03 0. -1.
         23    2    1    0    0    0  0.20485264449E+02 -0.10285749562E+02 -0.21686134656E+02  0.93444792190E+02  0.87955659554E+02 0.  0.
         11    1    3    3    0    0  0.94483772379E+01 -0.81140590345E+01 -0.55982384407E+02  0.57350999561E+02  0.51100000000E-03 0.  1.
         22    1    1    0    0    0 -0.20485264449E+02  0.10285749562E+02  0.21686134656E+02  0.31555207810E+02  0.00000000000E+00 0.  1.
</event>
<event>
 5    1  0.1096978E-009  0.9118800E+02  0.7818608E-02  0.1130116E+00
         25   -1    0    0    0    0  0.00000000000E+00  0.00000000000E+00  0.99999998245E-14  0.12500000000E+03  0.12500000000E+03 0.  0.
        -11    1    3    3    0    0 -0.63496876071E+00  0.33510845690E+02  0.25311556683E+02  0.42000653163E+02  0.51100000000E-03 0. -1.
         23    2    1    0    0    0  0.21815069790E+02 -0.59723858304E+01 -0.10714075517E+02  0.99972853206E+02  0.96789530950E+02 0.  0.
         11    1    3    3    0    0  0.22450038551E+02 -0.39483231520E+02 -0.36025632199E+02  0.57972200043E+02  0.51100000000E-03 0.  1.
         22    1    1    0    0    0 -0.21815069790E+02  0.59723858304E+01  0.10714075517E+02  0.25027146794E+02  0.00000000000E+00 0.  1.
</event>
<event>
 5    1  0.1096978E-009  0.9118800E+02  0.7818608E-02  0.1130116E+00
         25   -1    0    0    0    0  0.00000000000E+00  0.00000000000E+00  0.99999998245E-14  0.12500000000E+03  0.12500000000E+03 0.  0.
        -11    1    3    3    0    0  0.98479230453E+01 -0.29669129339E+02  0.12977309501E+02  0.33847442831E+02  0.51100000000E-03 0.  1.
         23    2    1    0    0    0 -0.79502005815E+01  0.21807304365E+02 -0.17195684924E+02  0.96113051512E+02  0.91669312630E+02 0.  0.
         11    1    3    3    0    0 -0.17798123627E+02  0.51476433704E+02 -0.30172994426E+02  0.62265608681E+02  0.51100000000E-03 0. -1.
         22    1    1    0    0    0  0.79502005815E+01 -0.21807304365E+02  0.17195684924E+02  0.28886948488E+02  0.00000000000E+00 0. -1.
</event>
<event>
 5    1  0.1096978E-009  0.9118800E+02  0.7818608E-02  0.1130116E+00
         25   -1    0    0    0    0  0.00000000000E+00  0.00000000000E+00  0.99999998245E-14  0.12500000000E+03  0.12500000000E+03 0.  0.
        -11    1    3    3    0    0 -0.46516872190E+02  0.24528696119E+02 -0.31028157342E+02  0.61059175232E+02  0.51100000000E-03 0. -1.
         23    2    1    0    0    0 -0.19651819883E+02  0.16680880870E+02 -0.61639880128E+01  0.98496404781E+02  0.94863592570E+02 0.  0.
         11    1    3    3    0    0  0.26865052307E+02 -0.78478152495E+01  0.24864169329E+02  0.37437229550E+02  0.51100000000E-03 0.  1.
         22    1    1    0    0    0  0.19651819883E+02 -0.16680880870E+02  0.61639880128E+01  0.26503595219E+02  0.00000000000E+00 0. -1.
</event>
<event>
 5    1  0.1096978E-009  0.9118800E+02  0.7818608E-02  0.1130116E+00
         25   -1    0    0    0    0  0.00000000000E+00  0.00000000000E+00  0.99999998245E-14  0.12500000000E+03  0.12500000000E+03 0.  0.
        -11    1    3    3    0    0 -0.62387386179E+01 -0.35595239567E+02  0.67332973528E+01  0.36759763776E+02  0.51100000000E-03 0.  1.
         23    2    1    0    0    0  0.28110394223E+02  0.96221692217E+01 -0.53368177083E+01  0.94812883093E+02  0.89878922853E+02 0.  0.
         11    1    3    3    0    0  0.34349132841E+02  0.45217408789E+02 -0.12070115061E+02  0.58053119316E+02  0.51100000000E-03 0. -1.
         22    1    1    0    0    0 -0.28110394223E+02 -0.96221692217E+01  0.53368177083E+01  0.30187116907E+02  0.00000000000E+00 0. -1.
</event>
<event>
 5    1  0.1096978E-009  0.9118800E+02  0.7818608E-02  0.1130116E+00
         25   -1    0    0    0    0  0.00000000000E+00  0.00000000000E+00  0.99999998245E-14  0.12500000000E+03  0.12500000000E+03 0.  0.
        -11    1    3    3    0    0  0.22097140580E+02 -0.44636524335E+02  0.21970014044E+02  0.54436976807E+02  0.51100000000E-03 0. -1.
         23    2    1    0    0    0  0.29171913065E+02 -0.93235112456E+01  0.61997875556E+01  0.93753148326E+02  0.88392799942E+02 0.  0.
         11    1    3    3    0    0  0.70747724841E+01  0.35313013090E+02 -0.15770226488E+02  0.39316171519E+02  0.51100000000E-03 0.  1.
         22    1    1    0    0    0 -0.29171913065E+02  0.93235112456E+01 -0.61997875556E+01  0.31246851674E+02  0.00000000000E+00 0. -1.
</event>
<event>
 5    1  0.1096978E-009  0.9118800E+02  0.7818608E-02  0.1130116E+00
         25   -1    0    0    0    0  0.00000000000E+00  0.00000000000E+00  0.99999998245E-14  0.12500000000E+03  0.12500000000E+03 0.  0.
        -11    1    3    3    0    0  0.21927809358E+02  0.37270703775E+01  0.32335038076E+02  0.39246331860E+02  0.51100000000E-03 0.  1.
         23    2    1    0    0    0 -0.12132982394E+00  0.23841730005E+02 -0.16165556331E+02  0.96194305736E+02  0.91780043768E+02 0.  0.
         11    1    3    3    0    0 -0.22049139182E+02  0.20114659627E+02 -0.48500594406E+02  0.56947973876E+02  0.51100000000E-03 0. -1.
         22    1    1    0    0    0  0.12132982394E+00 -0.23841730005E+02  0.16165556331E+02  0.28805694264E+02  0.00000000000E+00 0. -1.
</event>
<event>
 5    1  0.1096978E-009  0.9118800E+02  0.7818608E-02  0.1130116E+00
         25   -1    0    0    0    0  0.00000000000E+00  0.00000000000E+00  0.99999998245E-14  0.12500000000E+03  0.12500000000E+03 0.  0.
        -11    1    3    3    0    0 -0.10557481344E+02 -0.34225271774E+02 -0.40964628443E+02  0.54414432130E+02  0.51100000000E-03 0.  1.
         23    2    1    0    0    0  0.11534791042E+02 -0.23234538964E+02 -0.41553699845E+01  0.98729059686E+02  0.95169663872E+02 0.  0.
         11    1    3    3    0    0  0.22092272387E+02  0.10990732809E+02  0.36809258458E+02  0.44314627556E+02  0.51100000000E-03 0. -1.
         22    1    1    0    0    0 -0.11534791042E+02  0.23234538964E+02  0.41553699845E+01  0.26270940314E+02  0.00000000000E+00 0.  1.
</event>
<event>
 5    1  0.1096978E-009  0.9118800E+02  0.7818608E-02  0.1130116E+00
         25   -1    0    0    0    0  0.00000000000E+00  0.00000000000E+00  0.99999998245E-14  0.12500000000E+03  0.12500000000E+03 0.  0.
        -11    1    3    3    0    0  0.43362851835E+02 -0.34085131132E+02  0.18978360047E+02  0.58329334248E+02  0.51100000000E-03 0. -1.
         23    2    1    0    0    0  0.19968124919E+02 -0.81600815289E+01  0.22984476038E+02  0.93478593273E+02  0.88003683549E+02 0.  0.
         11    1    3    3    0    0 -0.23394726916E+02  0.25925049603E+02  0.40061159905E+01  0.35149259024E+02  0.51100000000E-03 0.  1.
         22    1    1    0    0    0 -0.19968124919E+02  0.81600815289E+01 -0.22984476038E+02  0.31521406727E+02  0.00000000000E+00 0. -1.
</event>
<event>
 5    1  0.1096978E-009  0.9118800E+02  0.7818608E-02  0.1130116E+00
         25   -1    0    0    0    0  0.00000000000E+00  0.00000000000E+00  0.99999998245E-14  0.12500000000E+03  0.12500000000E+03 0.  0.
        -11    1    3    3    0    0  0.53245346271E+02  0.22806828501E+02 -0.18049316211E+02  0.60671213452E+02  0.51100000000E-03 0. -1.
         23    2    1    0    0    0  0.31042318313E+02  0.76659651747E+01 -0.33925046572E-01  0.93025108300E+02  0.87357181015E+02 0.  0.
         11    1    3    3    0    0 -0.22203027958E+02 -0.15140863327E+02  0.18015391164E+02  0.32353894848E+02  0.51100000000E-03 0.  1.
         22    1    1    0    0    0 -0.31042318313E+02 -0.76659651747E+01  0.33925046572E-01  0.31974891700E+02  0.00000000000E+00 0. -1.
</event>
<event>
 5    1  0.1096978E-009  0.9118800E+02  0.7818608E-02  0.1130116E+00
         25   -1    0    0    0    0  0.00000000000E+00  0.00000000000E+00  0.99999998245E-14  0.12500000000E+03  0.12500000000E+03 0.  0.
        -11    1    3    3    0    0 -0.19324807048E+02  0.30130569325E+02  0.16244239713E+02  0.39308710223E+02  0.51100000000E-03 0.  1.
         23    2    1    0    0    0  0.28225198474E+02  0.12160208326E+01  0.85098127680E+01  0.95494789461E+02  0.90822339572E+02 0.  0.
         11    1    3    3    0    0  0.47550005522E+02 -0.28914548493E+02 -0.77344269446E+01  0.56186079238E+02  0.51100000000E-03 0. -1.
         22    1    1    0    0    0 -0.28225198474E+02 -0.12160208326E+01 -0.85098127680E+01  0.29505210539E+02  0.00000000000E+00 0. -1.
</event>
<event>
 5    1  0.1096978E-009  0.9118800E+02  0.7818608E-02  0.1130116E+00
         25   -1    0    0    0    0  0.00000000000E+00  0.00000000000E+00  0.99999998245E-14  0.12500000000E+03  0.12500000000E+03 0.  0.
        -11    1    3    3    0    0 -0.50139509373E+00  0.21624377045E+02  0.21900737493E+02  0.30781607863E+02  0.51100000000E-03 0.  1.
         23    2    1    0    0    0 -0.60958244162E+01 -0.29904588209E+02 -0.11435696391E+02  0.92408304383E+02  0.86470087867E+02 0.  0.
         11    1    3    3    0    0 -0.55944293225E+01 -0.51528965254E+02 -0.33336433884E+02  0.61626696520E+02  0.51100000000E-03 0. -1.
         22    1    1    0    0    0  0.60958244162E+01  0.29904588209E+02  0.11435696391E+02  0.32591695617E+02  0.00000000000E+00 0. -1.
</event>
<event>
 5    1  0.1096978E-009  0.9118800E+02  0.7818608E-02  0.1130116E+00
         25   -1    0    0    0    0  0.00000000000E+00  0.00000000000E+00  0.99999998245E-14  0.12500000000E+03  0.12500000000E+03 0.  0.
        -11    1    3    3    0    0 -0.53426130098E+02 -0.14434371217E+02  0.14415258612E+02  0.57188304143E+02  0.51100000000E-03 0.  1.
         23    2    1    0    0    0 -0.17599334974E+02 -0.19042953186E+02 -0.55815573877E+01  0.98475964854E+02  0.94836655432E+02 0.  0.
         11    1    3    3    0    0  0.35826795124E+02 -0.46085819689E+01 -0.19996816000E+02  0.41287660711E+02  0.51100000000E-03 0. -1.
         22    1    1    0    0    0  0.17599334974E+02  0.19042953186E+02  0.55815573877E+01  0.26524035146E+02  0.00000000000E+00 0.  1.
</event>
<event>
 5    1  0.1096978E-009  0.9118800E+02  0.7818608E-02  0.1130116E+00
         25   -1    0    0    0    0  0.00000000000E+00  0.00000000000E+00  0.99999998245E-14  0.12500000000E+03  0.12500000000E+03 0.  0.
        -11    1    3    3    0    0  0.56544172341E+01 -0.11311394665E+02  0.51910680341E+02  0.53428820100E+02  0.51100000000E-03 0. -1.
         23    2    1    0    0    0  0.23745166857E+02  0.42006234417E+01  0.17850235305E+02  0.94998181942E+02  0.90136260658E+02 0.  0.
         11    1    3    3    0    0  0.18090749623E+02  0.15512018107E+02 -0.34060445036E+02  0.41569361842E+02  0.51100000000E-03 0.  1.
         22    1    1    0    0    0 -0.23745166857E+02 -0.42006234417E+01 -0.17850235305E+02  0.30001818058E+02  0.00000000000E+00 0.  1.
</event>
<event>
 5    1  0.1096978E-009  0.9118800E+02  0.7818608E-02  0.1130116E+00
         25   -1    0    0    0    0  0.00000000000E+00  0.00000000000E+00  0.99999998245E-14  0.12500000000E+03  0.12500000000E+03 0.  0.
        -11    1    3    3    0    0 -0.24647113958E+02 -0.52148489502E+02 -0.72944218441E+00  0.57684289629E+02  0.51100000000E-03 0. -1.
         23    2    1    0    0    0 -0.24097308916E+02 -0.15932150485E+02  0.81638860841E+01  0.94980627054E+02  0.90111912440E+02 0.  0.
         11    1    3    3    0    0  0.54980504253E+00  0.36216339017E+02  0.88933282685E+01  0.37296337425E+02  0.51100000000E-03 0.  1.
         22    1    1    0    0    0  0.24097308916E+02  0.15932150485E+02 -0.81638860841E+01  0.30019372946E+02  0.00000000000E+00 0. -1.
</event>
<event>
 5    1  0.1096978E-009  0.9118800E+02  0.7818608E-02  0.1130116E+00
         25   -1    0    0    0    0  0.00000000000E+00  0.00000000000E+00  0.99999998245E-14  0.12500000000E+03  0.12500000000E+03 0.  0.
        -11    1    3    3    0    0 -0.31863825359E+02 -0.43903299963E+02  0.26144688524E+02  0.60219165159E+02  0.51100000000E-03 0.  1.
         23    2    1    0    0    0 -0.18819786418E+02 -0.11528741297E+02  0.19069300498E+02  0.95832647391E+02  0.91286153647E+02 0.  0.
         11    1    3    3    0    0  0.13044038940E+02  0.32374558666E+02 -0.70753880255E+01  0.35613482232E+02  0.51100000000E-03 0. -1.
         22    1    1    0    0    0  0.18819786418E+02  0.11528741297E+02 -0.19069300498E+02  0.29167352609E+02  0.00000000000E+00 0.  1.
</event>
<event>
 5    1  0.1096978E-009  0.9118800E+02  0.7818608E-02  0.1130116E+00
         25   -1    0    0    0    0  0.00000000000E+00  0.00000000000E+00  0.99999998245E-14  0.12500000000E+03  0.12500000000E+03 0.  0.
        -11    1    3    3    0    0 -0.35628154364E+02 -0.49986673120E+01 -0.52695027335E+01  0.36360964201E+02  0.51100000000E-03 0.  1.
         23    2    1    0    0    0  0.18799238014E+02 -0.14674745431E+02  0.16740541997E+02  0.95862305346E+02  0.91326755864E+02 0.  0.
         11    1    3    3    0    0  0.54427392378E+02 -0.96760781186E+01  0.22010044731E+02  0.59501341146E+02  0.51100000000E-03 0. -1.
         22    1    1    0    0    0 -0.18799238014E+02  0.14674745431E+02 -0.16740541997E+02  0.29137694654E+02  0.00000000000E+00 0. -1.
</event>
<event>
 5    1  0.1096978E-009  0.9118800E+02  0.7818608E-02  0.1130116E+00
         25   -1    0    0    0    0  0.00000000000E+00  0.00000000000E+00  0.99999998245E-14  0.12500000000E+03  0.12500000000E+03 0.  0.
        -11    1    3    3    0    0 -0.45191590112E+02 -0.45808832720E+01 -0.18306197788E+01  0.45460042646E+02  0.51100000000E-03 0. -1.
         23    2    1    0    0    0 -0.74240672108E+01  0.25153732855E+02 -0.14312679613E+02  0.95122251621E+02  0.90308155253E+02 0.  0.
         11    1    3    3    0    0  0.37767522901E+02  0.29734616127E+02 -0.12482059834E+02  0.49662208975E+02  0.51100000000E-03 0.  1.
         22    1    1    0    0    0  0.74240672108E+01 -0.25153732855E+02  0.14312679613E+02  0.29877748379E+02  0.00000000000E+00 0.  1.
</event>
<event>
 5    1  0.1096978E-009  0.9118800E+02  0.7818608E-02  0.1130116E+00
         25   -1    0    0    0    0  0.00000000000E+00  0.00000000000E+00  0.99999998245E-14  0.12500000000E+03  0.12500000000E+03 0.  0.
        -11    1    3    3    0    0 -0.44389256644E+02  0.22560612877E+02 -0.29554393911E+02  0.57903795717E+02  0.51100000000E-03 0. -1.
         23    2    1    0    0    0 -0.72463629238E+01  0.97584435269E+01 -0.24676102999E+02  0.97492781767E+02  0.93531788403E+02 0.  0.
         11    1    3    3    0    0  0.37142893720E+02 -0.12802169350E+02  0.48782909118E+01  0.39588986050E+02  0.51100000000E-03 0.  1.
         22    1    1    0    0    0  0.72463629238E+01 -0.97584435269E+01  0.24676102999E+02  0.27507218233E+02  0.00000000000E+00 0. -1.
</event>
<event>
 5    1  0.1096978E-009  0.9118800E+02  0.7818608E-02  0.1130116E+00
         25   -1    0    0    0    0  0.00000000000E+00  0.00000000000E+00  0.99999998245E-14  0.12500000000E+03  0.12500000000E+03 0.  0.
        -11    1    3    3    0    0  0.52924347707E+01 -0.55361249943E+02  0.32346773085E+01  0.55707638602E+02  0.51100000000E-03 0. -1.
         23    2    1    0    0    0  0.21841802793E+02 -0.19073095423E+02  0.47300128744E+01  0.95619388365E+02  0.90993665116E+02 0.  0.
         11    1    3    3    0    0  0.16549368022E+02  0.36288154520E+02  0.14953355659E+01  0.39911749763E+02  0.51100000000E-03 0.  1.
         22    1    1    0    0    0 -0.21841802793E+02  0.19073095423E+02 -0.47300128744E+01  0.29380611635E+02  0.00000000000E+00 0. -1.
</event>
<event>
 5    1  0.1096978E-009  0.9118800E+02  0.7818608E-02  0.1130116E+00
         25   -1    0    0    0    0  0.00000000000E+00  0.00000000000E+00  0.99999998245E-14  0.12500000000E+03  0.12500000000E+03 0.  0.
        -11    1    3    3    0    0  0.47476940001E+01  0.49527749786E+02 -0.10526432910E+02  0.50856114551E+02  0.51100000000E-03 0. -1.
         23    2    1    0    0    0  0.26494575689E+02  0.11701029270E+02 -0.95615003214E+01  0.94499198120E+02  0.89441598431E+02 0.  0.
         11    1    3    3    0    0  0.21746881689E+02 -0.37826720516E+02  0.96493258876E+00  0.43643083569E+02  0.51100000000E-03 0.  1.
         22    1    1    0    0    0 -0.26494575689E+02 -0.11701029270E+02  0.95615003214E+01  0.30500801880E+02  0.00000000000E+00 0. -1.
</event>
<event>
 5    1  0.1096978E-009  0.9118800E+02  0.7818608E-02  0.1130116E+00
         25   -1    0    0    0    0  0.00000000000E+00  0.00000000000E+00  0.99999998245E-14  0.12500000000E+03  0.12500000000E+03 0.  0.
        -11    1    3    3    0    0  0.31964704404E+02  0.31755509909E+02  0.27645499613E+02  0.52862353205E+02  0.51100000000E-03 0.  1.
         23    2    1    0    0    0 -0.31623576498E+01  0.74415323954E+01  0.28278768475E+02  0.95588001483E+02  0.90950538045E+02 0.  0.
         11    1    3    3    0    0 -0.35127062053E+02 -0.24313977514E+02  0.63326886199E+00  0.42725648278E+02  0.51100000000E-03 0. -1.
         22    1    1    0    0    0  0.31623576498E+01 -0.74415323954E+01 -0.28278768475E+02  0.29411998517E+02  0.00000000000E+00 0. -1.
</event>
<event>
 5    1  0.1096978E-009  0.9118800E+02  0.7818608E-02  0.1130116E+00
         25   -1    0    0    0    0  0.00000000000E+00  0.00000000000E+00  0.99999998245E-14  0.12500000000E+03  0.12500000000E+03 0.  0.
        -11    1    3    3    0    0  0.58540622389E+01  0.29597931298E+02  0.27208168572E+02  0.40627478622E+02  0.51100000000E-03 0. -1.
         23    2    1    0    0    0  0.20750710434E+02  0.39170615316E+01 -0.19686326312E+02  0.96129828573E+02  0.91692186926E+02 0.  0.
         11    1    3    3    0    0  0.14896648196E+02 -0.25680869767E+02 -0.46894494884E+02  0.55502349951E+02  0.51100000000E-03 0.  1.
         22    1    1    0    0    0 -0.20750710434E+02 -0.39170615316E+01  0.19686326312E+02  0.28870171427E+02  0.00000000000E+00 0.  1.
</event>
<event>
 5    1  0.1096978E-009  0.9118800E+02  0.7818608E-02  0.1130116E+00
         25   -1    0    0    0    0  0.00000000000E+00  0.00000000000E+00  0.99999998245E-14  0.12500000000E+03  0.12500000000E+03 0.  0.
        -11    1    3    3    0    0  0.26345151148E+02 -0.29559187479E+02 -0.60238648541E+01  0.40051210986E+02  0.51100000000E-03 0.  1.
         23    2    1    0    0    0  0.15282841597E+01  0.17556680480E+02 -0.23073652646E+02  0.95966121024E+02  0.91468739229E+02 0.  0.
         11    1    3    3    0    0 -0.24816866988E+02  0.47115867959E+02 -0.17049787792E+02  0.55914910038E+02  0.51100000000E-03 0. -1.
         22    1    1    0    0    0 -0.15282841597E+01 -0.17556680480E+02  0.23073652646E+02  0.29033878976E+02  0.00000000000E+00 0. -1.
</event>
<event>
 5    1  0.1096978E-009  0.9118800E+02  0.7818608E-02  0.1130116E+00
         25   -1    0    0    0    0  0.00000000000E+00  0.00000000000E+00  0.99999998245E-14  0.12500000000E+03  0.12500000000E+03 0.  0.
        -11    1    3    3    0    0  0.37355826553E+02  0.84946505591E+01 -0.39227901664E+02  0.54831059946E+02  0.51100000000E-03 0.  1.
         23    2    1    0    0    0  0.66660926725E+01  0.23206927126E+02 -0.16199927128E+02  0.95923619601E+02  0.91410638879E+02 0.  0.
         11    1    3    3    0    0 -0.30689733881E+02  0.14712276567E+02  0.23027974536E+02  0.41092559654E+02  0.51100000000E-03 0. -1.
         22    1    1    0    0    0 -0.66660926725E+01 -0.23206927126E+02  0.16199927128E+02  0.29076380399E+02  0.00000000000E+00 0.  1.
</event>
<event>
 5    1  0.1096978E-009  0.9118800E+02  0.7818608E-02  0.1130116E+00
         25   -1    0    0    0    0  0.00000000000E+00  0.00000000000E+00  0.99999998245E-14  0.12500000000E+03  0.12500000000E+03 0.  0.
        -11    1    3    3    0    0 -0.43711269770E+02 -0.21784633267E+01 -0.13608011349E+02  0.45832289715E+02  0.51100000000E-03 0. -1.
         23    2    1    0    0    0  0.66567046199E+01 -0.65372102574E+01 -0.25567136900E+02  0.97783730535E+02  0.93919820239E+02 0.  0.
         11    1    3    3    0    0  0.50367974390E+02 -0.43587469306E+01 -0.11959125551E+02  0.51951440819E+02  0.51100000000E-03 0.  1.
         22    1    1    0    0    0 -0.66567046199E+01  0.65372102574E+01  0.25567136900E+02  0.27216269465E+02  0.00000000000E+00 0.  1.
</event>
<event>
 5    1  0.1096978E-009  0.9118800E+02  0.7818608E-02  0.1130116E+00
         25   -1    0    0    0    0  0.00000000000E+00  0.00000000000E+00  0.99999998245E-14  0.12500000000E+03  0.12500000000E+03 0.  0.
        -11    1    3    3    0    0  0.16800048622E+02  0.29605860036E+02 -0.41493745883E+01  0.34292359089E+02  0.51100000000E-03 0. -1.
         23    2    1    0    0    0  0.24291925124E+01 -0.29587813735E+02 -0.66222569471E+00  0.95305248936E+02  0.90561096692E+02 0.  0.
         11    1    3    3    0    0 -0.14370856110E+02 -0.59193673771E+02  0.34871488935E+01  0.61012889847E+02  0.51100000000E-03 0.  1.
         22    1    1    0    0    0 -0.24291925124E+01  0.29587813735E+02  0.66222569471E+00  0.29694751064E+02  0.00000000000E+00 0.  1.
</event>
<event>
 4    1  0.1096978E-009  0.9118800E+02  0.7818608E-02  0.1130116E+00
         25   -1    0    0    0    0  0.00000000000E+00  0.00000000000E+00  0.99999998245E-14  0.12500000000E+03  0.12500000000E+03 0.  0.
        -11    1    1    0    0    0 -0.61905753637E+01  0.83017279892E+00  0.25081402466E+02  0.25847420763E+02  0.51100000000E-03 0. -1.
         11    1    1    0    0    0 -0.41860688094E+02  0.16288724920E+02 -0.11821729867E+02  0.46447745527E+02  0.51100000000E-03 0.  1.
         22    1    1    0    0    0  0.48051263458E+02 -0.17118897719E+02 -0.13259672598E+02  0.52704833710E+02  0.00000000000E+00 0.  1.
</event>
<event>
 5    1  0.1096978E-009  0.9118800E+02  0.7818608E-02  0.1130116E+00
         25   -1    0    0    0    0  0.00000000000E+00  0.00000000000E+00  0.99999998245E-14  0.12500000000E+03  0.12500000000E+03 0.  0.
        -11    1    3    3    0    0  0.38705899269E+01  0.82940960629E+01 -0.33924413639E+02  0.35137434979E+02  0.51100000000E-03 0.  1.
         23    2    1    0    0    0  0.26880520105E+01 -0.24367728744E+02  0.16658249354E+02  0.95360345831E+02  0.90637114129E+02 0.  0.
         11    1    3    3    0    0 -0.11825379164E+01 -0.32661824806E+02  0.50582662994E+02  0.60222910851E+02  0.51100000000E-03 0. -1.
         22    1    1    0    0    0 -0.26880520105E+01  0.24367728744E+02 -0.16658249354E+02  0.29639654169E+02  0.00000000000E+00 0. -1.
</event>
<event>
 5    1  0.1096978E-009  0.9118800E+02  0.7818608E-02  0.1130116E+00
         25   -1    0    0    0    0  0.00000000000E+00  0.00000000000E+00  0.99999998245E-14  0.12500000000E+03  0.12500000000E+03 0.  0.
        -11    1    3    3    0    0  0.29157423131E+02  0.12474640815E+02 -0.38250519567E+02  0.49687767454E+02  0.51100000000E-03 0.  1.
         23    2    1    0    0    0  0.18805579569E+01 -0.16513592264E+02 -0.30538313207E+02  0.90231856517E+02  0.83264422951E+02 0.  0.
         11    1    3    3    0    0 -0.27276865174E+02 -0.28988233080E+02  0.77122063605E+01  0.40544089064E+02  0.51100000000E-03 0. -1.
         22    1    1    0    0    0 -0.18805579569E+01  0.16513592264E+02  0.30538313207E+02  0.34768143483E+02  0.00000000000E+00 0.  1.
</event>
<event>
 5    1  0.1096978E-009  0.9118800E+02  0.7818608E-02  0.1130116E+00
         25   -1    0    0    0    0  0.00000000000E+00  0.00000000000E+00  0.99999998245E-14  0.12500000000E+03  0.12500000000E+03 0.  0.
        -11    1    3    3    0    0 -0.81458500047E+01  0.31955917170E+02 -0.36999215366E+02  0.49562863642E+02  0.51100000000E-03 0. -1.
         23    2    1    0    0    0 -0.21309307943E+02  0.17061464433E+02  0.61032528697E+01  0.97028052102E+02  0.92908627293E+02 0.  0.
         11    1    3    3    0    0 -0.13163457939E+02 -0.14894452737E+02  0.43102468235E+02  0.47465188459E+02  0.51100000000E-03 0.  1.
         22    1    1    0    0    0  0.21309307943E+02 -0.17061464433E+02 -0.61032528697E+01  0.27971947898E+02  0.00000000000E+00 0. -1.
</event>
<event>
 5    1  0.1096978E-009  0.9118800E+02  0.7818608E-02  0.1130116E+00
         25   -1    0    0    0    0  0.00000000000E+00  0.00000000000E+00  0.99999998245E-14  0.12500000000E+03  0.12500000000E+03 0.  0.
        -11    1    3    3    0    0 -0.46984931214E+02 -0.27480784205E+02 -0.90017695485E+01  0.55170726994E+02  0.51100000000E-03 0.  1.
         23    2    1    0    0    0 -0.24849100297E+02  0.57360402579E+01 -0.14811773203E+02  0.95508160979E+02  0.90840741107E+02 0.  0.
         11    1    3    3    0    0  0.22135830918E+02  0.33216824463E+02 -0.58100036549E+01  0.40337433986E+02  0.51100000000E-03 0. -1.
         22    1    1    0    0    0  0.24849100297E+02 -0.57360402579E+01  0.14811773203E+02  0.29491839021E+02  0.00000000000E+00 0.  1.
</event>
<event>
 5    1  0.1096978E-009  0.9118800E+02  0.7818608E-02  0.1130116E+00
         25   -1    0    0    0    0  0.00000000000E+00  0.00000000000E+00  0.99999998245E-14  0.12500000000E+03  0.12500000000E+03 0.  0.
        -11    1    3    3    0    0  0.69159064956E+01  0.17049271205E+02  0.33357682328E+02  0.38095175309E+02  0.51100000000E-03 0.  1.
         23    2    1    0    0    0 -0.17177557549E+02 -0.24766365225E+02  0.39691279204E+01  0.94599419310E+02  0.89581554059E+02 0.  0.
         11    1    3    3    0    0 -0.24093464045E+02 -0.41815636430E+02 -0.29388554407E+02  0.56504244001E+02  0.51100000000E-03 0. -1.
         22    1    1    0    0    0  0.17177557549E+02  0.24766365225E+02 -0.39691279204E+01  0.30400580690E+02  0.00000000000E+00 0. -1.
</event>
<event>
 5    1  0.1096978E-009  0.9118800E+02  0.7818608E-02  0.1130116E+00
         25   -1    0    0    0    0  0.00000000000E+00  0.00000000000E+00  0.99999998245E-14  0.12500000000E+03  0.12500000000E+03 0.  0.
        -11    1    3    3    0    0 -0.15484039007E+00  0.41415815268E+02  0.12583221658E+02  0.43285461732E+02  0.51100000000E-03 0.  1.
         23    2    1    0    0    0 -0.15912824093E+02  0.11359341566E+02 -0.24566871876E+02  0.93602805775E+02  0.88179937876E+02 0.  0.
         11    1    3    3    0    0 -0.15757983703E+02 -0.30056473702E+02 -0.37150093534E+02  0.50317344043E+02  0.51100000000E-03 0. -1.
         22    1    1    0    0    0  0.15912824093E+02 -0.11359341566E+02  0.24566871876E+02  0.31397194225E+02  0.00000000000E+00 0. -1.
</event>
<event>
 5    1  0.1096978E-009  0.9118800E+02  0.7818608E-02  0.1130116E+00
         25   -1    0    0    0    0  0.00000000000E+00  0.00000000000E+00  0.99999998245E-14  0.12500000000E+03  0.12500000000E+03 0.  0.
        -11    1    3    3    0    0  0.47093161737E+02 -0.25531958823E+02 -0.91923362378E+01  0.54352054694E+02  0.51100000000E-03 0. -1.
         23    2    1    0    0    0  0.33253115022E+01 -0.40370165488E+01  0.15236829521E+02  0.10889049433E+03  0.10769226333E+03 0.  0.
         11    1    3    3    0    0 -0.43767850234E+02  0.21494942274E+02  0.24429165759E+02  0.54538439632E+02  0.51100000000E-03 0.  1.
         22    1    1    0    0    0 -0.33253115022E+01  0.40370165488E+01 -0.15236829521E+02  0.16109505674E+02  0.00000000000E+00 0. -1.
</event>
<event>
 5    1  0.1096978E-009  0.9118800E+02  0.7818608E-02  0.1130116E+00
         25   -1    0    0    0    0  0.00000000000E+00  0.00000000000E+00  0.99999998245E-14  0.12500000000E+03  0.12500000000E+03 0.  0.
        -11    1    3    3    0    0  0.48065044824E+02  0.26911401143E+02  0.19439881292E+02  0.58415588932E+02  0.51100000000E-03 0.  1.
         23    2    1    0    0    0  0.24455547244E+02  0.17358607070E+02 -0.60024817258E+01  0.94415284581E+02  0.89324247241E+02 0.  0.
         11    1    3    3    0    0 -0.23609497580E+02 -0.95527940731E+01 -0.25442363018E+02  0.35999695648E+02  0.51100000000E-03 0. -1.
         22    1    1    0    0    0 -0.24455547244E+02 -0.17358607070E+02  0.60024817258E+01  0.30584715419E+02  0.00000000000E+00 0.  1.
</event>
<event>
 5    1  0.1096978E-009  0.9118800E+02  0.7818608E-02  0.1130116E+00
         25   -1    0    0    0    0  0.00000000000E+00  0.00000000000E+00  0.99999998245E-14  0.12500000000E+03  0.12500000000E+03 0.  0.
        -11    1    3    3    0    0 -0.83727370283E+00  0.17289523069E+02  0.36430055304E+02  0.40333330695E+02  0.51100000000E-03 0. -1.
         23    2    1    0    0    0  0.11211362097E+01 -0.28135915644E+02  0.31775359442E+01  0.96663037739E+02  0.92416229282E+02 0.  0.
         11    1    3    3    0    0  0.19584099125E+01 -0.45425438713E+02 -0.33252519360E+02  0.56329707044E+02  0.51100000000E-03 0.  1.
         22    1    1    0    0    0 -0.11211362097E+01  0.28135915644E+02 -0.31775359442E+01  0.28336962261E+02  0.00000000000E+00 0.  1.
</event>
<event>
 5    1  0.1096978E-009  0.9118800E+02  0.7818608E-02  0.1130116E+00
         25   -1    0    0    0    0  0.00000000000E+00  0.00000000000E+00  0.99999998245E-14  0.12500000000E+03  0.12500000000E+03 0.  0.
        -11    1    3    3    0    0  0.53743217981E+02  0.13900831444E+02 -0.21328148651E+02  0.59468113464E+02  0.51100000000E-03 0.  1.
         23    2    1    0    0    0  0.27127311383E+02  0.73883633780E+01  0.37780917328E+01  0.96631832744E+02  0.92374012504E+02 0.  0.
         11    1    3    3    0    0 -0.26615906598E+02 -0.65124680662E+01  0.25106240384E+02  0.37163719281E+02  0.51100000000E-03 0. -1.
         22    1    1    0    0    0 -0.27127311383E+02 -0.73883633780E+01 -0.37780917328E+01  0.28368167256E+02  0.00000000000E+00 0.  1.
</event>
<event>
 5    1  0.1096978E-009  0.9118800E+02  0.7818608E-02  0.1130116E+00
         25   -1    0    0    0    0  0.00000000000E+00  0.00000000000E+00  0.99999998245E-14  0.12500000000E+03  0.12500000000E+03 0.  0.
        -11    1    3    3    0    0 -0.33293525247E+02 -0.12459400023E+02 -0.27785804191E+02  0.45119246304E+02  0.51100000000E-03 0. -1.
         23    2    1    0    0    0  0.17152136552E+02 -0.77327884061E+01 -0.21901950344E+02  0.96126357457E+02  0.91687454781E+02 0.  0.
         11    1    3    3    0    0  0.50445661799E+02  0.47266116165E+01  0.58838538463E+01  0.51007111152E+02  0.51100000000E-03 0.  1.
         22    1    1    0    0    0 -0.17152136552E+02  0.77327884061E+01  0.21901950344E+02  0.28873642543E+02  0.00000000000E+00 0.  1.
</event>
<event>
 5    1  0.1096978E-009  0.9118800E+02  0.7818608E-02  0.1130116E+00
         25   -1    0    0    0    0  0.00000000000E+00  0.00000000000E+00  0.99999998245E-14  0.12500000000E+03  0.12500000000E+03 0.  0.
        -11    1    3    3    0    0 -0.20837921097E+02  0.49974279163E+02  0.30601814672E+02  0.62194200654E+02  0.51100000000E-03 0.  1.
         23    2    1    0    0    0 -0.14358946679E+02  0.27654175286E+02  0.21441941185E+02  0.87175542274E+02  0.78542253396E+02 0.  0.
         11    1    3    3    0    0  0.64789744186E+01 -0.22320103877E+02 -0.91598734873E+01  0.24981341620E+02  0.51100000000E-03 0. -1.
         22    1    1    0    0    0  0.14358946679E+02 -0.27654175286E+02 -0.21441941185E+02  0.37824457726E+02  0.00000000000E+00 0.  1.
</event>
<event>
 5    1  0.1096978E-009  0.9118800E+02  0.7818608E-02  0.1130116E+00
         25   -1    0    0    0    0  0.00000000000E+00  0.00000000000E+00  0.99999998245E-14  0.12500000000E+03  0.12500000000E+03 0.  0.
        -11    1    3    3    0    0  0.25993686563E+02  0.36766676200E+02 -0.37959882119E+02  0.58893232809E+02  0.51100000000E-03 0.  1.
         23    2    1    0    0    0  0.25529628053E+02  0.14351078741E+02 -0.11596963082E+02  0.93500715527E+02  0.88035100283E+02 0.  0.
         11    1    3    3    0    0 -0.46405850954E+00 -0.22415597459E+02  0.26362919037E+02  0.34607482719E+02  0.51100000000E-03 0. -1.
         22    1    1    0    0    0 -0.25529628053E+02 -0.14351078741E+02  0.11596963082E+02  0.31499284473E+02  0.00000000000E+00 0.  1.
</event>
<event>
 5    1  0.1096978E-009  0.9118800E+02  0.7818608E-02  0.1130116E+00
         25   -1    0    0    0    0  0.00000000000E+00  0.00000000000E+00  0.99999998245E-14  0.12500000000E+03  0.12500000000E+03 0.  0.
        -11    1    3    3    0    0 -0.11090147617E+02  0.29205678127E+02 -0.35781695229E+02  0.47500449711E+02  0.51100000000E-03 0. -1.
         23    2    1    0    0    0  0.19518761026E+02  0.22010141621E+02  0.58557491403E+00  0.95576008698E+02  0.90934053986E+02 0.  0.
         11    1    3    3    0    0  0.30608908643E+02 -0.71955365059E+01  0.36367270143E+02  0.48075558986E+02  0.51100000000E-03 0.  1.
         22    1    1    0    0    0 -0.19518761026E+02 -0.22010141621E+02 -0.58557491403E+00  0.29423991302E+02  0.00000000000E+00 0.  1.
</event>
<event>
 5    1  0.1096978E-009  0.9118800E+02  0.7818608E-02  0.1130116E+00
         25   -1    0    0    0    0  0.00000000000E+00  0.00000000000E+00  0.99999998245E-14  0.12500000000E+03  0.12500000000E+03 0.  0.
        -11    1    3    3    0    0  0.29203004669E+02 -0.40054438882E+01  0.39391281341E+02  0.49198903528E+02  0.51100000000E-03 0.  1.
         23    2    1    0    0    0  0.12860567053E+02  0.26345013369E+02  0.11620580306E+02  0.93464435933E+02  0.87983572236E+02 0.  0.
         11    1    3    3    0    0 -0.16342437615E+02  0.30350457257E+02 -0.27770701035E+02  0.44265532406E+02  0.51100000000E-03 0. -1.
         22    1    1    0    0    0 -0.12860567053E+02 -0.26345013369E+02 -0.11620580306E+02  0.31535564067E+02  0.00000000000E+00 0. -1.
</event>
<event>
 5    1  0.1096978E-009  0.9118800E+02  0.7818608E-02  0.1130116E+00
         25   -1    0    0    0    0  0.00000000000E+00  0.00000000000E+00  0.99999998245E-14  0.12500000000E+03  0.12500000000E+03 0.  0.
        -11    1    3    3    0    0  0.14675003884E+02 -0.20219856720E+02  0.22933391054E+02  0.33913695910E+02  0.51100000000E-03 0. -1.
         23    2    1    0    0    0 -0.89475838807E+01  0.11559485993E+01 -0.28883175222E+02  0.94740567001E+02  0.89778292200E+02 0.  0.
         11    1    3    3    0    0 -0.23622587765E+02  0.21375805319E+02 -0.51816566277E+02  0.60826871091E+02  0.51100000000E-03 0.  1.
         22    1    1    0    0    0  0.89475838807E+01 -0.11559485993E+01  0.28883175222E+02  0.30259432999E+02  0.00000000000E+00 0.  1.
</event>
<event>
 5    1  0.1096978E-009  0.9118800E+02  0.7818608E-02  0.1130116E+00
         25   -1    0    0    0    0  0.00000000000E+00  0.00000000000E+00  0.99999998245E-14  0.12500000000E+03  0.12500000000E+03 0.  0.
        -11    1    3    3    0    0  0.25164405856E+02  0.21013792483E+01 -0.24880434976E+02  0.35449952915E+02  0.51100000000E-03 0. -1.
         23    2    1    0    0    0  0.85929053738E+01  0.54947320483E+01  0.30228838482E+02  0.93096821804E+02  0.87459736171E+02 0.  0.
         11    1    3    3    0    0 -0.16571500482E+02  0.33933528000E+01  0.55109273457E+02  0.57646868889E+02  0.51100000000E-03 0.  1.
         22    1    1    0    0    0 -0.85929053738E+01 -0.54947320483E+01 -0.30228838482E+02  0.31903178196E+02  0.00000000000E+00 0.  1.
</event>
<event>
 5    1  0.1096978E-009  0.9118800E+02  0.7818608E-02  0.1130116E+00
         25   -1    0    0    0    0  0.00000000000E+00  0.00000000000E+00  0.99999998245E-14  0.12500000000E+03  0.12500000000E+03 0.  0.
        -11    1    3    3    0    0 -0.56862544913E+02  0.21921872124E+02 -0.12358153295E+02  0.62182324213E+02  0.51100000000E-03 0.  1.
         23    2    1    0    0    0 -0.22573658483E+02  0.13182396235E+02 -0.66687097193E+01  0.98021910425E+02  0.94236286039E+02 0.  0.
         11    1    3    3    0    0  0.34288886430E+02 -0.87394758896E+01  0.56894435755E+01  0.35839586213E+02  0.51100000000E-03 0. -1.
         22    1    1    0    0    0  0.22573658483E+02 -0.13182396235E+02  0.66687097193E+01  0.26978089575E+02  0.00000000000E+00 0.  1.
</event>
<event>
 5    1  0.1096978E-009  0.9118800E+02  0.7818608E-02  0.1130116E+00
         25   -1    0    0    0    0  0.00000000000E+00  0.00000000000E+00  0.99999998245E-14  0.12500000000E+03  0.12500000000E+03 0.  0.
        -11    1    3    3    0    0  0.80186564577E+01  0.27955583942E+02  0.40830191729E+02  0.50129014370E+02  0.51100000000E-03 0.  1.
         23    2    1    0    0    0 -0.23153264482E+02  0.53356755359E+01  0.11144334727E+02  0.98756157177E+02  0.95205248250E+02 0.  0.
         11    1    3    3    0    0 -0.31171920940E+02 -0.22619908406E+02 -0.29685857001E+02  0.48627142807E+02  0.51100000000E-03 0. -1.
         22    1    1    0    0    0  0.23153264482E+02 -0.53356755359E+01 -0.11144334727E+02  0.26243842823E+02  0.00000000000E+00 0. -1.
</event>
<event>
 5    1  0.1096978E-009  0.9118800E+02  0.7818608E-02  0.1130116E+00
         25   -1    0    0    0    0  0.00000000000E+00  0.00000000000E+00  0.99999998245E-14  0.12500000000E+03  0.12500000000E+03 0.  0.
        -11    1    3    3    0    0 -0.34117124827E+02  0.83637550001E+01  0.18820030282E+02  0.39851275315E+02  0.51100000000E-03 0.  1.
         23    2    1    0    0    0 -0.55243420614E+01  0.34540779443E+01 -0.28723288060E+02  0.95547049611E+02  0.90894237456E+02 0.  0.
         11    1    3    3    0    0  0.28592782766E+02 -0.49096770558E+01 -0.47543318342E+02  0.55695774295E+02  0.51100000000E-03 0. -1.
         22    1    1    0    0    0  0.55243420614E+01 -0.34540779443E+01  0.28723288060E+02  0.29452950389E+02  0.00000000000E+00 0. -1.
</event>
<event>
 5    1  0.1096978E-009  0.9118800E+02  0.7818608E-02  0.1130116E+00
         25   -1    0    0    0    0  0.00000000000E+00  0.00000000000E+00  0.99999998245E-14  0.12500000000E+03  0.12500000000E+03 0.  0.
        -11    1    3    3    0    0  0.62530711852E+01 -0.51972984265E+02  0.29998735311E+02  0.60334203509E+02  0.51100000000E-03 0.  1.
         23    2    1    0    0    0  0.82807055214E+01 -0.27209757263E+02  0.40307992777E+01  0.96273908775E+02  0.91888395316E+02 0.  0.
         11    1    3    3    0    0  0.20276343362E+01  0.24763227002E+02 -0.25967936033E+02  0.35939705266E+02  0.51100000000E-03 0. -1.
         22    1    1    0    0    0 -0.82807055214E+01  0.27209757263E+02 -0.40307992777E+01  0.28726091225E+02  0.00000000000E+00 0.  1.
</event>
<event>
 5    1  0.1096978E-009  0.9118800E+02  0.7818608E-02  0.1130116E+00
         25   -1    0    0    0    0  0.00000000000E+00  0.00000000000E+00  0.99999998245E-14  0.12500000000E+03  0.12500000000E+03 0.  0.
        -11    1    3    3    0    0  0.22805484144E+02 -0.16950449622E+02 -0.80543755644E+01  0.29534400543E+02  0.51100000000E-03 0. -1.
         23    2    1    0    0    0  0.27651557905E+02  0.29406950701E+02 -0.23074451945E+02  0.78504755763E+02  0.63254951907E+02 0.  0.
         11    1    3    3    0    0  0.48460737612E+01  0.46357400323E+02 -0.15020076381E+02  0.48970355220E+02  0.51100000000E-03 0.  1.
         22    1    1    0    0    0 -0.27651557905E+02 -0.29406950701E+02  0.23074451945E+02  0.46495244237E+02  0.00000000000E+00 0.  1.
</event>
<event>
 5    1  0.1096978E-009  0.9118800E+02  0.7818608E-02  0.1130116E+00
         25   -1    0    0    0    0  0.00000000000E+00  0.00000000000E+00  0.99999998245E-14  0.12500000000E+03  0.12500000000E+03 0.  0.
        -11    1    3    3    0    0 -0.13369932202E+02  0.43378837120E+02  0.41964404805E+01  0.45586058285E+02  0.51100000000E-03 0.  1.
         23    2    1    0    0    0 -0.30836149844E+02 -0.75964713080E+00 -0.44480570218E+01  0.93835430177E+02  0.88509081706E+02 0.  0.
         11    1    3    3    0    0 -0.17466217642E+02 -0.44138484251E+02 -0.86444975023E+01  0.48249371892E+02  0.51100000000E-03 0. -1.
         22    1    1    0    0    0  0.30836149844E+02  0.75964713080E+00  0.44480570218E+01  0.31164569823E+02  0.00000000000E+00 0. -1.
</event>
<event>
 5    1  0.1096978E-009  0.9118800E+02  0.7818608E-02  0.1130116E+00
         25   -1    0    0    0    0  0.00000000000E+00  0.00000000000E+00  0.99999998245E-14  0.12500000000E+03  0.12500000000E+03 0.  0.
        -11    1    3    3    0    0 -0.30234539691E+02  0.18897540039E+00 -0.13974805634E+02  0.33308531862E+02  0.51100000000E-03 0.  1.
         23    2    1    0    0    0  0.23829212713E+02 -0.35887970654E+01  0.16792206151E+02  0.95628431599E+02  0.91006087158E+02 0.  0.
         11    1    3    3    0    0  0.54063752404E+02 -0.37777724658E+01  0.30767011785E+02  0.62319899737E+02  0.51100000000E-03 0. -1.
         22    1    1    0    0    0 -0.23829212713E+02  0.35887970654E+01 -0.16792206151E+02  0.29371568401E+02  0.00000000000E+00 0. -1.
</event>
<event>
 5    1  0.1096978E-009  0.9118800E+02  0.7818608E-02  0.1130116E+00
         25   -1    0    0    0    0  0.00000000000E+00  0.00000000000E+00  0.99999998245E-14  0.12500000000E+03  0.12500000000E+03 0.  0.
        -11    1    3    3    0    0 -0.46404815412E+02  0.16649069535E+02  0.28926269312E+02  0.57160541166E+02  0.51100000000E-03 0. -1.
         23    2    1    0    0    0 -0.23474154057E+02  0.18547711980E+02 -0.11880336999E+01  0.95058975427E+02  0.90220529021E+02 0.  0.
         11    1    3    3    0    0  0.22930661355E+02  0.18986424458E+01 -0.30114303012E+02  0.37898434262E+02  0.51100000000E-03 0.  1.
         22    1    1    0    0    0  0.23474154057E+02 -0.18547711980E+02  0.11880336999E+01  0.29941024573E+02  0.00000000000E+00 0. -1.
</event>
<event>
 5    1  0.1096978E-009  0.9118800E+02  0.7818608E-02  0.1130116E+00
         25   -1    0    0    0    0  0.00000000000E+00  0.00000000000E+00  0.99999998245E-14  0.12500000000E+03  0.12500000000E+03 0.  0.
        -11    1    3    3    0    0  0.66013698446E+01  0.36086925823E+02  0.28587918348E+02  0.46509282675E+02  0.51100000000E-03 0.  1.
         23    2    1    0    0    0  0.75040218587E+01  0.22387504619E+02 -0.18147862750E+02  0.95219878618E+02  0.90443184677E+02 0.  0.
         11    1    3    3    0    0  0.90265201407E+00 -0.13699421203E+02 -0.46735781099E+02  0.48710595943E+02  0.51100000000E-03 0. -1.
         22    1    1    0    0    0 -0.75040218587E+01 -0.22387504619E+02  0.18147862750E+02  0.29780121382E+02  0.00000000000E+00 0.  1.
</event>
<event>
 5    1  0.1096978E-009  0.9118800E+02  0.7818608E-02  0.1130116E+00
         25   -1    0    0    0    0  0.00000000000E+00  0.00000000000E+00  0.99999998245E-14  0.12500000000E+03  0.12500000000E+03 0.  0.
        -11    1    3    3    0    0 -0.48726328339E+02 -0.76042028775E+01 -0.13368129504E+02  0.51095849748E+02  0.51100000000E-03 0. -1.
         23    2    1    0    0    0 -0.11593648743E+02  0.21724992533E+02 -0.96204805531E+01  0.98562495620E+02  0.94950639309E+02 0.  0.
         11    1    3    3    0    0  0.37132679596E+02  0.29329195411E+02  0.37476489507E+01  0.47466645872E+02  0.51100000000E-03 0.  1.
         22    1    1    0    0    0  0.11593648743E+02 -0.21724992533E+02  0.96204805531E+01  0.26437504380E+02  0.00000000000E+00 0.  1.
</event>
<event>
 5    1  0.1096978E-009  0.9118800E+02  0.7818608E-02  0.1130116E+00
         25   -1    0    0    0    0  0.00000000000E+00  0.00000000000E+00  0.99999998245E-14  0.12500000000E+03  0.12500000000E+03 0.  0.
        -11    1    3    3    0    0 -0.82898290268E+01  0.39706892214E+02  0.13984442445E+02  0.42905980764E+02  0.51100000000E-03 0. -1.
         23    2    1    0    0    0  0.28806859875E+02  0.37295762490E+01  0.24891920100E+01  0.95846252527E+02  0.91304781539E+02 0.  0.
         11    1    3    3    0    0  0.37096688902E+02 -0.35977315965E+02 -0.11495250435E+02  0.52940271763E+02  0.51100000000E-03 0.  1.
         22    1    1    0    0    0 -0.28806859875E+02 -0.37295762490E+01 -0.24891920100E+01  0.29153747473E+02  0.00000000000E+00 0.  1.
</event>
<event>
 5    1  0.1096978E-009  0.9118800E+02  0.7818608E-02  0.1130116E+00
         25   -1    0    0    0    0  0.00000000000E+00  0.00000000000E+00  0.99999998245E-14  0.12500000000E+03  0.12500000000E+03 0.  0.
        -11    1    3    3    0    0  0.57188127203E+02  0.23267333563E+01 -0.10622358058E+02  0.58212799899E+02  0.51100000000E-03 0. -1.
         23    2    1    0    0    0  0.20378838195E+02  0.65491604119E+01 -0.19202179035E+02  0.96243918417E+02  0.91847588996E+02 0.  0.
         11    1    3    3    0    0 -0.36809289008E+02  0.42224270556E+01 -0.85798209773E+01  0.38031118518E+02  0.51100000000E-03 0.  1.
         22    1    1    0    0    0 -0.20378838195E+02 -0.65491604119E+01  0.19202179035E+02  0.28756081583E+02  0.00000000000E+00 0. -1.
</event>
<event>
 5    1  0.1096978E-009  0.9118800E+02  0.7818608E-02  0.1130116E+00
         25   -1    0    0    0    0  0.00000000000E+00  0.00000000000E+00  0.99999998245E-14  0.12500000000E+03  0.12500000000E+03 0.  0.
        -11    1    3    3    0    0 -0.28734129243E+02  0.43312832065E+02 -0.80367985635E+01  0.52595073308E+02  0.51100000000E-03 0.  1.
         23    2    1    0    0    0 -0.31592588905E+02  0.71996013985E+01  0.70535390191E+01  0.91838601557E+02  0.85642573463E+02 0.  0.
         11    1    3    3    0    0 -0.28584596612E+01 -0.36113230667E+02  0.15090337583E+02  0.39243528249E+02  0.51100000000E-03 0. -1.
         22    1    1    0    0    0  0.31592588905E+02 -0.71996013985E+01 -0.70535390191E+01  0.33161398443E+02  0.00000000000E+00 0.  1.
</event>
<event>
 5    1  0.1096978E-009  0.9118800E+02  0.7818608E-02  0.1130116E+00
         25   -1    0    0    0    0  0.00000000000E+00  0.00000000000E+00  0.99999998245E-14  0.12500000000E+03  0.12500000000E+03 0.  0.
        -11    1    3    3    0    0  0.51263927021E+02 -0.24505007521E+02  0.25630527683E+02  0.62333053485E+02  0.51100000000E-03 0. -1.
         23    2    1    0    0    0  0.25305708735E+02 -0.94736472187E+01  0.14552782010E+02  0.94309409415E+02  0.89175962870E+02 0.  0.
         11    1    3    3    0    0 -0.25958218286E+02  0.15031360303E+02 -0.11077745672E+02  0.31976355930E+02  0.51100000000E-03 0.  1.
         22    1    1    0    0    0 -0.25305708735E+02  0.94736472187E+01 -0.14552782010E+02  0.30690590585E+02  0.00000000000E+00 0. -1.
</event>
<event>
 5    1  0.1096978E-009  0.9118800E+02  0.7818608E-02  0.1130116E+00
         25   -1    0    0    0    0  0.00000000000E+00  0.00000000000E+00  0.99999998245E-14  0.12500000000E+03  0.12500000000E+03 0.  0.
        -11    1    3    3    0    0 -0.72442618171E+01  0.20013000414E+02  0.44414276485E+02  0.49250659598E+02  0.51100000000E-03 0. -1.
         23    2    1    0    0    0  0.58666910557E+01 -0.18848992690E+02  0.19570709293E+02  0.97202243767E+02  0.93142691295E+02 0.  0.
         11    1    3    3    0    0  0.13110952873E+02 -0.38861993104E+02 -0.24843567193E+02  0.47951584169E+02  0.51100000000E-03 0.  1.
         22    1    1    0    0    0 -0.58666910557E+01  0.18848992690E+02 -0.19570709293E+02  0.27797756233E+02  0.00000000000E+00 0. -1.
</event>
<event>
 5    1  0.1096978E-009  0.9118800E+02  0.7818608E-02  0.1130116E+00
         25   -1    0    0    0    0  0.00000000000E+00  0.00000000000E+00  0.99999998245E-14  0.12500000000E+03  0.12500000000E+03 0.  0.
        -11    1    3    3    0    0 -0.88138317879E+01 -0.49574857930E+02 -0.98296858477E+01  0.51302757174E+02  0.51100000000E-03 0.  1.
         23    2    1    0    0    0 -0.88422962792E+01 -0.22589144609E+02  0.21452955192E+02  0.92616594618E+02  0.86770667017E+02 0.  0.
         11    1    3    3    0    0 -0.28464491309E-01  0.26985713321E+02  0.31282641039E+02  0.41313837444E+02  0.51100000000E-03 0. -1.
         22    1    1    0    0    0  0.88422962792E+01  0.22589144609E+02 -0.21452955192E+02  0.32383405382E+02  0.00000000000E+00 0.  1.
</event>
<event>
 5    1  0.1096978E-009  0.9118800E+02  0.7818608E-02  0.1130116E+00
         25   -1    0    0    0    0  0.00000000000E+00  0.00000000000E+00  0.99999998245E-14  0.12500000000E+03  0.12500000000E+03 0.  0.
        -11    1    3    3    0    0  0.93733231627E+00 -0.32064177436E+02  0.42665572696E+02  0.53379220304E+02  0.51100000000E-03 0.  1.
         23    2    1    0    0    0 -0.22417883301E+02 -0.75665450724E+01  0.16664885538E+02  0.96059846130E+02  0.91596733197E+02 0.  0.
         11    1    3    3    0    0 -0.23355215618E+02  0.24497632363E+02 -0.26000687158E+02  0.42680625826E+02  0.51100000000E-03 0. -1.
         22    1    1    0    0    0  0.22417883301E+02  0.75665450724E+01 -0.16664885538E+02  0.28940153870E+02  0.00000000000E+00 0.  1.
</event>
<event>
 5    1  0.1096978E-009  0.9118800E+02  0.7818608E-02  0.1130116E+00
         25   -1    0    0    0    0  0.00000000000E+00  0.00000000000E+00  0.99999998245E-14  0.12500000000E+03  0.12500000000E+03 0.  0.
        -11    1    3    3    0    0 -0.14520211062E+02 -0.34126497003E+02 -0.43897674639E+02  0.57467035472E+02  0.51100000000E-03 0. -1.
         23    2    1    0    0    0 -0.13161865130E+02 -0.74239440572E-01 -0.25759442148E+02  0.96072693437E+02  0.91614263951E+02 0.  0.
         11    1    3    3    0    0  0.13583459326E+01  0.34052257563E+02  0.18138232490E+02  0.38605657965E+02  0.51100000000E-03 0.  1.
         22    1    1    0    0    0  0.13161865130E+02  0.74239440572E-01  0.25759442148E+02  0.28927306563E+02  0.00000000000E+00 0.  1.
</event>
<event>
 5    1  0.1096978E-009  0.9118800E+02  0.7818608E-02  0.1130116E+00
         25   -1    0    0    0    0  0.00000000000E+00  0.00000000000E+00  0.99999998245E-14  0.12500000000E+03  0.12500000000E+03 0.  0.
        -11    1    3    3    0    0  0.13722951098E+02  0.21291529438E+02 -0.20012554257E+02  0.32282362690E+02  0.51100000000E-03 0. -1.
         23    2    1    0    0    0 -0.20134667755E+02 -0.19817829349E+02  0.11872993688E+02  0.94354948445E+02  0.89239773147E+02 0.  0.
         11    1    3    3    0    0 -0.33857618853E+02 -0.41109358787E+02  0.31885547946E+02  0.62072585755E+02  0.51100000000E-03 0.  1.
         22    1    1    0    0    0  0.20134667755E+02  0.19817829349E+02 -0.11872993688E+02  0.30645051555E+02  0.00000000000E+00 0.  1.
</event>
<event>
 5    1  0.1096978E-009  0.9118800E+02  0.7818608E-02  0.1130116E+00
         25   -1    0    0    0    0  0.00000000000E+00  0.00000000000E+00  0.99999998245E-14  0.12500000000E+03  0.12500000000E+03 0.  0.
        -11    1    3    3    0    0  0.19527056440E+02 -0.28749219464E+02  0.24945746849E+02  0.42779829817E+02  0.51100000000E-03 0.  1.
         23    2    1    0    0    0 -0.19390466066E+02  0.88304597838E+01  0.17576417441E+02  0.97379398190E+02  0.93380134652E+02 0.  0.
         11    1    3    3    0    0 -0.38917522506E+02  0.37579679248E+02 -0.73693294081E+01  0.54599568374E+02  0.51100000000E-03 0. -1.
         22    1    1    0    0    0  0.19390466066E+02 -0.88304597838E+01 -0.17576417441E+02  0.27620601810E+02  0.00000000000E+00 0. -1.
</event>
<event>
 5    1  0.1096978E-009  0.9118800E+02  0.7818608E-02  0.1130116E+00
         25   -1    0    0    0    0  0.00000000000E+00  0.00000000000E+00  0.99999998245E-14  0.12500000000E+03  0.12500000000E+03 0.  0.
        -11    1    3    3    0    0 -0.44081381044E+02 -0.28595074841E+02  0.31375093446E+02  0.61198390085E+02  0.51100000000E-03 0.  1.
         23    2    1    0    0    0 -0.17392702590E+02 -0.19488177071E+02  0.84329828064E+01  0.97551678595E+02  0.93610467624E+02 0.  0.
         11    1    3    3    0    0  0.26688678454E+02  0.91068977705E+01 -0.22942110640E+02  0.36353288510E+02  0.51100000000E-03 0. -1.
         22    1    1    0    0    0  0.17392702590E+02  0.19488177071E+02 -0.84329828064E+01  0.27448321405E+02  0.00000000000E+00 0.  1.
</event>
<event>
 5    1  0.1096978E-009  0.9118800E+02  0.7818608E-02  0.1130116E+00
         25   -1    0    0    0    0  0.00000000000E+00  0.00000000000E+00  0.99999998245E-14  0.12500000000E+03  0.12500000000E+03 0.  0.
        -11    1    3    3    0    0 -0.31210419382E+02 -0.24599383587E+02 -0.30076549326E+02  0.49837925022E+02  0.51100000000E-03 0.  1.
         23    2    1    0    0    0  0.11869978077E+02 -0.10779564592E+02 -0.24911222667E+02  0.95374598617E+02  0.90656768386E+02 0.  0.
         11    1    3    3    0    0  0.43080397460E+02  0.13819818995E+02  0.51653266589E+01  0.45536673595E+02  0.51100000000E-03 0. -1.
         22    1    1    0    0    0 -0.11869978077E+02  0.10779564592E+02  0.24911222667E+02  0.29625401383E+02  0.00000000000E+00 0. -1.
</event>
<event>
 5    1  0.1096978E-009  0.9118800E+02  0.7818608E-02  0.1130116E+00
         25   -1    0    0    0    0  0.00000000000E+00  0.00000000000E+00  0.99999998245E-14  0.12500000000E+03  0.12500000000E+03 0.  0.
        -11    1    3    3    0    0  0.27366379690E+02 -0.24289042477E+02 -0.10378234591E+02  0.38033985793E+02  0.51100000000E-03 0. -1.
         23    2    1    0    0    0 -0.26698569297E+01  0.84001081194E+01  0.27332020680E+02  0.96281899316E+02  0.91899264573E+02 0.  0.
         11    1    3    3    0    0 -0.30036236619E+02  0.32689150597E+02  0.37710255271E+02  0.58247913524E+02  0.51100000000E-03 0.  1.
         22    1    1    0    0    0  0.26698569297E+01 -0.84001081194E+01 -0.27332020680E+02  0.28718100684E+02  0.00000000000E+00 0.  1.
</event>
<event>
 5    1  0.1096978E-009  0.9118800E+02  0.7818608E-02  0.1130116E+00
         25   -1    0    0    0    0  0.00000000000E+00  0.00000000000E+00  0.99999998245E-14  0.12500000000E+03  0.12500000000E+03 0.  0.
        -11    1    3    3    0    0  0.25319426403E+02  0.15672734392E+02 -0.36684818468E+01  0.30002761806E+02  0.51100000000E-03 0. -1.
         23    2    1    0    0    0 -0.29735372138E+02 -0.13414198381E+02  0.33660620240E-01  0.92378930008E+02  0.86427614233E+02 0.  0.
         11    1    3    3    0    0 -0.55054798541E+02 -0.29086932772E+02  0.37021424670E+01  0.62376168202E+02  0.51100000000E-03 0.  1.
         22    1    1    0    0    0  0.29735372138E+02  0.13414198381E+02 -0.33660620240E-01  0.32621069992E+02  0.00000000000E+00 0.  1.
</event>
<event>
 5    1  0.1096978E-009  0.9118800E+02  0.7818608E-02  0.1130116E+00
         25   -1    0    0    0    0  0.00000000000E+00  0.00000000000E+00  0.99999998245E-14  0.12500000000E+03  0.12500000000E+03 0.  0.
        -11    1    3    3    0    0 -0.51739299225E+02  0.21803379657E+02 -0.77526865705E+01  0.56678449150E+02  0.51100000000E-03 0. -1.
         23    2    1    0    0    0 -0.15323065341E+02  0.20832062218E+02  0.10087674228E+02  0.97241536083E+02  0.93195407724E+02 0.  0.
         11    1    3    3    0    0  0.36416233883E+02 -0.97131743973E+00  0.17840360799E+02  0.40563086933E+02  0.51100000000E-03 0.  1.
         22    1    1    0    0    0  0.15323065341E+02 -0.20832062218E+02 -0.10087674228E+02  0.27758463917E+02  0.00000000000E+00 0. -1.
</event>
<event>
 5    1  0.1096978E-009  0.9118800E+02  0.7818608E-02  0.1130116E+00
         25   -1    0    0    0    0  0.00000000000E+00  0.00000000000E+00  0.99999998245E-14  0.12500000000E+03  0.12500000000E+03 0.  0.
        -11    1    3    3    0    0 -0.44909066121E+02  0.35724643843E+02  0.18101378031E+02  0.60172537628E+02  0.51100000000E-03 0.  1.
         23    2    1    0    0    0 -0.13331924271E+02  0.25786440857E+02  0.64863312836E+01  0.95255198263E+02  0.90491986196E+02 0.  0.
         11    1    3    3    0    0  0.31577141851E+02 -0.99382029859E+01 -0.11615046748E+02  0.35082660635E+02  0.51100000000E-03 0. -1.
         22    1    1    0    0    0  0.13331924271E+02 -0.25786440857E+02 -0.64863312836E+01  0.29744801737E+02  0.00000000000E+00 0.  1.
</event>
<event>
 5    1  0.1096978E-009  0.9118800E+02  0.7818608E-02  0.1130116E+00
         25   -1    0    0    0    0  0.00000000000E+00  0.00000000000E+00  0.99999998245E-14  0.12500000000E+03  0.12500000000E+03 0.  0.
        -11    1    3    3    0    0 -0.46804498305E+02  0.60643691445E+01  0.10211108645E+02  0.48287724887E+02  0.51100000000E-03 0. -1.
         23    2    1    0    0    0 -0.18233860067E+02 -0.29034613035E+01 -0.24622808644E+02  0.94223605702E+02  0.89055608613E+02 0.  0.
         11    1    3    3    0    0  0.28570638238E+02 -0.89678304480E+01 -0.34833917289E+02  0.45935880815E+02  0.51100000000E-03 0.  1.
         22    1    1    0    0    0  0.18233860067E+02  0.29034613035E+01  0.24622808644E+02  0.30776394298E+02  0.00000000000E+00 0. -1.
</event>
<event>
 5    1  0.1096978E-009  0.9118800E+02  0.7818608E-02  0.1130116E+00
         25   -1    0    0    0    0  0.00000000000E+00  0.00000000000E+00  0.99999998245E-14  0.12500000000E+03  0.12500000000E+03 0.  0.
        -11    1    3    3    0    0  0.11717168517E+02 -0.41099944527E+02  0.23241081073E+02  0.48648179081E+02  0.51100000000E-03 0. -1.
         23    2    1    0    0    0  0.20642268202E+02 -0.11043018075E+01  0.28316663250E+02  0.89940676894E+02  0.82826138529E+02 0.  0.
         11    1    3    3    0    0  0.89250996853E+01  0.39995642720E+02  0.50755821773E+01  0.41292497813E+02  0.51100000000E-03 0.  1.
         22    1    1    0    0    0 -0.20642268202E+02  0.11043018075E+01 -0.28316663250E+02  0.35059323106E+02  0.00000000000E+00 0.  1.
</event>
<event>
 5    1  0.1096978E-009  0.9118800E+02  0.7818608E-02  0.1130116E+00
         25   -1    0    0    0    0  0.00000000000E+00  0.00000000000E+00  0.99999998245E-14  0.12500000000E+03  0.12500000000E+03 0.  0.
        -11    1    3    3    0    0  0.32968791237E+02 -0.12270177139E+02 -0.50690971617E+02  0.61701483340E+02  0.51100000000E-03 0.  1.
         23    2    1    0    0    0  0.12729392603E+02 -0.12206806714E+02 -0.24934578503E+02  0.94458605610E+02  0.89384849961E+02 0.  0.
         11    1    3    3    0    0 -0.20239398634E+02  0.63370425292E-01  0.25756393114E+02  0.32757122270E+02  0.51100000000E-03 0. -1.
         22    1    1    0    0    0 -0.12729392603E+02  0.12206806714E+02  0.24934578503E+02  0.30541394390E+02  0.00000000000E+00 0.  1.
</event>
<event>
 5    1  0.1096978E-009  0.9118800E+02  0.7818608E-02  0.1130116E+00
         25   -1    0    0    0    0  0.00000000000E+00  0.00000000000E+00  0.99999998245E-14  0.12500000000E+03  0.12500000000E+03 0.  0.
        -11    1    3    3    0    0  0.43468096945E+02  0.28473817405E+01 -0.17721108283E+01  0.43597286749E+02  0.51100000000E-03 0.  1.
         23    2    1    0    0    0 -0.70083902639E+00  0.28139408902E+02  0.86532923729E+01  0.95551791607E+02  0.90900758532E+02 0.  0.
         11    1    3    3    0    0 -0.44168935972E+02  0.25292027161E+02  0.10425403201E+02  0.51954504857E+02  0.51100000000E-03 0. -1.
         22    1    1    0    0    0  0.70083902639E+00 -0.28139408902E+02 -0.86532923729E+01  0.29448208393E+02  0.00000000000E+00 0. -1.
</event>
<event>
 5    1  0.1096978E-009  0.9118800E+02  0.7818608E-02  0.1130116E+00
         25   -1    0    0    0    0  0.00000000000E+00  0.00000000000E+00  0.99999998245E-14  0.12500000000E+03  0.12500000000E+03 0.  0.
        -11    1    3    3    0    0 -0.35563665601E+02 -0.13383273343E+02  0.20779793086E+02  0.43309192065E+02  0.51100000000E-03 0.  1.
         23    2    1    0    0    0 -0.35064078190E+00  0.23212289433E+02  0.20398550794E+02  0.94096372314E+02  0.88876842195E+02 0.  0.
         11    1    3    3    0    0  0.35213024819E+02  0.36595562776E+02 -0.38124229197E+00  0.50787180250E+02  0.51100000000E-03 0. -1.
         22    1    1    0    0    0  0.35064078190E+00 -0.23212289433E+02 -0.20398550794E+02  0.30903627686E+02  0.00000000000E+00 0. -1.
</event>
<event>
 5    1  0.1096978E-009  0.9118800E+02  0.7818608E-02  0.1130116E+00
         25   -1    0    0    0    0  0.00000000000E+00  0.00000000000E+00  0.99999998245E-14  0.12500000000E+03  0.12500000000E+03 0.  0.
        -11    1    3    3    0    0  0.34303441859E+02  0.30674845211E+02 -0.94665644544E+01  0.46981784714E+02  0.51100000000E-03 0.  1.
         23    2    1    0    0    0 -0.65349498431E+00  0.12960160772E+01 -0.28507467426E+02  0.96455606287E+02  0.92135235235E+02 0.  0.
         11    1    3    3    0    0 -0.34956936844E+02 -0.29378829134E+02 -0.19040902972E+02  0.49473821573E+02  0.51100000000E-03 0. -1.
         22    1    1    0    0    0  0.65349498431E+00 -0.12960160772E+01  0.28507467426E+02  0.28544393713E+02  0.00000000000E+00 0. -1.
</event>
<event>
 5    1  0.1096978E-009  0.9118800E+02  0.7818608E-02  0.1130116E+00
         25   -1    0    0    0    0  0.00000000000E+00  0.00000000000E+00  0.99999998245E-14  0.12500000000E+03  0.12500000000E+03 0.  0.
        -11    1    3    3    0    0 -0.11571723133E+02 -0.17497989911E+02 -0.26180303311E+02  0.33548363729E+02  0.51100000000E-03 0.  1.
         23    2    1    0    0    0  0.17675917320E+02  0.69725061162E+01  0.22605071160E+02  0.95469623491E+02  0.90787696703E+02 0.  0.
         11    1    3    3    0    0  0.29247640453E+02  0.24470496027E+02  0.48785374472E+02  0.61921259761E+02  0.51100000000E-03 0. -1.
         22    1    1    0    0    0 -0.17675917320E+02 -0.69725061162E+01 -0.22605071160E+02  0.29530376509E+02  0.00000000000E+00 0. -1.
</event>
<event>
 5    1  0.1096978E-009  0.9118800E+02  0.7818608E-02  0.1130116E+00
         25   -1    0    0    0    0  0.00000000000E+00  0.00000000000E+00  0.99999998245E-14  0.12500000000E+03  0.12500000000E+03 0.  0.
        -11    1    3    3    0    0 -0.12372565463E+02  0.15242350723E+02  0.34380884325E+02  0.39591095450E+02  0.51100000000E-03 0.  1.
         23    2    1    0    0    0 -0.19706347428E+02 -0.17644667245E+02 -0.11200959160E+02  0.96274821197E+02  0.91889636517E+02 0.  0.
         11    1    3    3    0    0 -0.73337819657E+01 -0.32887017969E+02 -0.45581843485E+02  0.56683725747E+02  0.51100000000E-03 0. -1.
         22    1    1    0    0    0  0.19706347428E+02  0.17644667245E+02  0.11200959160E+02  0.28725178803E+02  0.00000000000E+00 0.  1.
</event>
<event>
 5    1  0.1096978E-009  0.9118800E+02  0.7818608E-02  0.1130116E+00
         25   -1    0    0    0    0  0.00000000000E+00  0.00000000000E+00  0.99999998245E-14  0.12500000000E+03  0.12500000000E+03 0.  0.
        -11    1    3    3    0    0  0.31259638377E+02 -0.34121900646E+02 -0.32556628514E+02  0.56580943396E+02  0.51100000000E-03 0.  1.
         23    2    1    0    0    0 -0.87614145045E+00 -0.11734142869E+02 -0.26226895424E+02  0.96254430319E+02  0.91861894057E+02 0.  0.
         11    1    3    3    0    0 -0.32135779827E+02  0.22387757777E+02  0.63297330897E+01  0.39673486923E+02  0.51100000000E-03 0. -1.
         22    1    1    0    0    0  0.87614145045E+00  0.11734142869E+02  0.26226895424E+02  0.28745569681E+02  0.00000000000E+00 0.  1.
</event>
<event>
 5    1  0.1096978E-009  0.9118800E+02  0.7818608E-02  0.1130116E+00
         25   -1    0    0    0    0  0.00000000000E+00  0.00000000000E+00  0.99999998245E-14  0.12500000000E+03  0.12500000000E+03 0.  0.
        -11    1    3    3    0    0 -0.39137266027E+02 -0.33461101448E+02 -0.14838112045E+02  0.53586756494E+02  0.51100000000E-03 0.  1.
         23    2    1    0    0    0 -0.25468016391E+02 -0.14381250088E+00  0.10323853435E+02  0.97518688338E+02  0.93566404678E+02 0.  0.
         11    1    3    3    0    0  0.13669249636E+02  0.33317288947E+02  0.25161965480E+02  0.43931931844E+02  0.51100000000E-03 0. -1.
         22    1    1    0    0    0  0.25468016391E+02  0.14381250088E+00 -0.10323853435E+02  0.27481311662E+02  0.00000000000E+00 0.  1.
</event>
<event>
 5    1  0.1096978E-009  0.9118800E+02  0.7818608E-02  0.1130116E+00
         25   -1    0    0    0    0  0.00000000000E+00  0.00000000000E+00  0.99999998245E-14  0.12500000000E+03  0.12500000000E+03 0.  0.
        -11    1    3    3    0    0 -0.22863975453E+02  0.25989518901E+02  0.18628241924E+02  0.39309386457E+02  0.51100000000E-03 0. -1.
         23    2    1    0    0    0 -0.14755574098E+02 -0.16221715456E+02 -0.18655496962E+02  0.96209401080E+02  0.91800600597E+02 0.  0.
         11    1    3    3    0    0  0.81084013552E+01 -0.42211234357E+02 -0.37283738886E+02  0.56900014622E+02  0.51100000000E-03 0.  1.
         22    1    1    0    0    0  0.14755574098E+02  0.16221715456E+02  0.18655496962E+02  0.28790598920E+02  0.00000000000E+00 0.  1.
</event>
<event>
 5    1  0.1096978E-009  0.9118800E+02  0.7818608E-02  0.1130116E+00
         25   -1    0    0    0    0  0.00000000000E+00  0.00000000000E+00  0.99999998245E-14  0.12500000000E+03  0.12500000000E+03 0.  0.
        -11    1    3    3    0    0 -0.25742598727E+02 -0.62104334575E+01 -0.47906048550E+02  0.54737924339E+02  0.51100000000E-03 0. -1.
         23    2    1    0    0    0 -0.82298282384E+01 -0.23761800554E+02 -0.15806265693E+02  0.95298295107E+02  0.90551497926E+02 0.  0.
         11    1    3    3    0    0  0.17512770489E+02 -0.17551367096E+02  0.32099782857E+02  0.40560370768E+02  0.51100000000E-03 0.  1.
         22    1    1    0    0    0  0.82298282384E+01  0.23761800554E+02  0.15806265693E+02  0.29701704893E+02  0.00000000000E+00 0. -1.
</event>
<event>
 5    1  0.1096978E-009  0.9118800E+02  0.7818608E-02  0.1130116E+00
         25   -1    0    0    0    0  0.00000000000E+00  0.00000000000E+00  0.99999998245E-14  0.12500000000E+03  0.12500000000E+03 0.  0.
        -11    1    3    3    0    0  0.30757223606E+02 -0.28800631781E+01 -0.28290062658E+02  0.41888294466E+02  0.51100000000E-03 0.  1.
         23    2    1    0    0    0 -0.16207298108E+02 -0.22097917896E+02 -0.99823763698E+01  0.95834226818E+02  0.91288316363E+02 0.  0.
         11    1    3    3    0    0 -0.46964521714E+02 -0.19217854718E+02  0.18307686288E+02  0.53945932352E+02  0.51100000000E-03 0. -1.
         22    1    1    0    0    0  0.16207298108E+02  0.22097917896E+02  0.99823763698E+01  0.29165773182E+02  0.00000000000E+00 0. -1.
</event>
<event>
 5    1  0.1096978E-009  0.9118800E+02  0.7818608E-02  0.1130116E+00
         25   -1    0    0    0    0  0.00000000000E+00  0.00000000000E+00  0.99999998245E-14  0.12500000000E+03  0.12500000000E+03 0.  0.
        -11    1    3    3    0    0 -0.48203449245E+00 -0.32490056712E+01 -0.34878556363E+02  0.35032871554E+02  0.51100000000E-03 0.  1.
         23    2    1    0    0    0  0.85638790431E+01 -0.15570944154E+02  0.23589440230E+02  0.95466019292E+02  0.90782734167E+02 0.  0.
         11    1    3    3    0    0  0.90459135356E+01 -0.12321938483E+02  0.58467996593E+02  0.60433147738E+02  0.51100000000E-03 0. -1.
         22    1    1    0    0    0 -0.85638790431E+01  0.15570944154E+02 -0.23589440230E+02  0.29533980708E+02  0.00000000000E+00 0. -1.
</event>
<event>
 5    1  0.1096978E-009  0.9118800E+02  0.7818608E-02  0.1130116E+00
         25   -1    0    0    0    0  0.00000000000E+00  0.00000000000E+00  0.99999998245E-14  0.12500000000E+03  0.12500000000E+03 0.  0.
        -11    1    3    3    0    0  0.48390076954E+02 -0.26365308858E+02  0.12573870858E+02  0.56522838635E+02  0.51100000000E-03 0.  1.
         23    2    1    0    0    0  0.14618582277E+02 -0.24722107129E+02 -0.67912137656E+01  0.95487187306E+02  0.90811876021E+02 0.  0.
         11    1    3    3    0    0 -0.33771494676E+02  0.16432017295E+01 -0.19365084624E+02  0.38964348671E+02  0.51100000000E-03 0. -1.
         22    1    1    0    0    0 -0.14618582277E+02  0.24722107129E+02  0.67912137656E+01  0.29512812694E+02  0.00000000000E+00 0.  1.
</event>
<event>
 5    1  0.1096978E-009  0.9118800E+02  0.7818608E-02  0.1130116E+00
         25   -1    0    0    0    0  0.00000000000E+00  0.00000000000E+00  0.99999998245E-14  0.12500000000E+03  0.12500000000E+03 0.  0.
        -11    1    3    3    0    0  0.20235960459E+02 -0.12252013642E+02  0.28923593932E+02  0.37365495048E+02  0.51100000000E-03 0. -1.
         23    2    1    0    0    0 -0.26048990282E+02 -0.48091038489E+01 -0.83160940475E+01  0.97236088266E+02  0.93188100456E+02 0.  0.
         11    1    3    3    0    0 -0.46284950741E+02  0.74429097934E+01 -0.37239687979E+02  0.59870593219E+02  0.51100000000E-03 0.  1.
         22    1    1    0    0    0  0.26048990282E+02  0.48091038489E+01  0.83160940475E+01  0.27763911734E+02  0.00000000000E+00 0.  1.
</event>
<event>
 5    1  0.1096978E-009  0.9118800E+02  0.7818608E-02  0.1130116E+00
         25   -1    0    0    0    0  0.00000000000E+00  0.00000000000E+00  0.99999998245E-14  0.12500000000E+03  0.12500000000E+03 0.  0.
        -11    1    3    3    0    0 -0.44625015011E+02  0.14650431170E+02  0.17964092836E+02  0.50286536269E+02  0.51100000000E-03 0.  1.
         23    2    1    0    0    0 -0.22733330033E+02 -0.54498916052E+01 -0.16940573016E+02  0.96129796901E+02  0.91692143748E+02 0.  0.
         11    1    3    3    0    0  0.21891684978E+02 -0.20100322776E+02 -0.34904665852E+02  0.45843260632E+02  0.51100000000E-03 0. -1.
         22    1    1    0    0    0  0.22733330033E+02  0.54498916052E+01  0.16940573016E+02  0.28870203099E+02  0.00000000000E+00 0. -1.
</event>
<event>
 5    1  0.1096978E-009  0.9118800E+02  0.7818608E-02  0.1130116E+00
         25   -1    0    0    0    0  0.00000000000E+00  0.00000000000E+00  0.99999998245E-14  0.12500000000E+03  0.12500000000E+03 0.  0.
        -11    1    3    3    0    0  0.19778162082E+01  0.50029533162E+02  0.79616741582E+01  0.50697674513E+02  0.51100000000E-03 0.  1.
         23    2    1    0    0    0 -0.24892955341E+02  0.27329159213E+02 -0.39197069371E+01  0.87826000063E+02  0.79570723358E+02 0.  0.
         11    1    3    3    0    0 -0.26870771549E+02 -0.22700373950E+02 -0.11881381095E+02  0.37128325549E+02  0.51100000000E-03 0. -1.
         22    1    1    0    0    0  0.24892955341E+02 -0.27329159213E+02  0.39197069371E+01  0.37173999937E+02  0.00000000000E+00 0.  1.
</event>
<event>
 5    1  0.1096978E-009  0.9118800E+02  0.7818608E-02  0.1130116E+00
         25   -1    0    0    0    0  0.00000000000E+00  0.00000000000E+00  0.99999998245E-14  0.12500000000E+03  0.12500000000E+03 0.  0.
        -11    1    3    3    0    0  0.87866721793E+01 -0.14371961112E+02 -0.33452410312E+02  0.37454273856E+02  0.51100000000E-03 0. -1.
         23    2    1    0    0    0  0.19280407682E+01 -0.10310458162E+02  0.25752455530E+02  0.97193312773E+02  0.93130704889E+02 0.  0.
         11    1    3    3    0    0 -0.68586314111E+01  0.40615029495E+01  0.59204865842E+02  0.59739038916E+02  0.51100000000E-03 0.  1.
         22    1    1    0    0    0 -0.19280407682E+01  0.10310458162E+02 -0.25752455530E+02  0.27806687227E+02  0.00000000000E+00 0.  1.
</event>
<event>
 5    1  0.1096978E-009  0.9118800E+02  0.7818608E-02  0.1130116E+00
         25   -1    0    0    0    0  0.00000000000E+00  0.00000000000E+00  0.99999998245E-14  0.12500000000E+03  0.12500000000E+03 0.  0.
        -11    1    3    3    0    0  0.11737138256E+02 -0.29569034536E+02 -0.50513206239E+01  0.32211862072E+02  0.51100000000E-03 0. -1.
         23    2    1    0    0    0 -0.10471130444E+02  0.22987612185E+02 -0.21755159953E+02  0.91662905476E+02  0.85385750386E+02 0.  0.
         11    1    3    3    0    0 -0.22208268701E+02  0.52556646720E+02 -0.16703839330E+02  0.59451043404E+02  0.51100000000E-03 0.  1.
         22    1    1    0    0    0  0.10471130444E+02 -0.22987612185E+02  0.21755159953E+02  0.33337094524E+02  0.00000000000E+00 0.  1.
</event>
<event>
 5    1  0.1096978E-009  0.9118800E+02  0.7818608E-02  0.1130116E+00
         25   -1    0    0    0    0  0.00000000000E+00  0.00000000000E+00  0.99999998245E-14  0.12500000000E+03  0.12500000000E+03 0.  0.
        -11    1    3    3    0    0  0.30453231372E+02  0.90039138333E+01 -0.41017050712E+02  0.51873579158E+02  0.51100000000E-03 0.  1.
         23    2    1    0    0    0  0.22477593293E+02 -0.18366228808E+02 -0.93004762074E+01  0.94519523978E+02  0.89470000528E+02 0.  0.
         11    1    3    3    0    0 -0.79756380790E+01 -0.27370142641E+02  0.31716574505E+02  0.42645944819E+02  0.51100000000E-03 0. -1.
         22    1    1    0    0    0 -0.22477593293E+02  0.18366228808E+02  0.93004762074E+01  0.30480476022E+02  0.00000000000E+00 0. -1.
</event>
<event>
 5    1  0.1096978E-009  0.9118800E+02  0.7818608E-02  0.1130116E+00
         25   -1    0    0    0    0  0.00000000000E+00  0.00000000000E+00  0.99999998245E-14  0.12500000000E+03  0.12500000000E+03 0.  0.
        -11    1    3    3    0    0  0.19053745462E+02 -0.14035069581E+02  0.44062529292E+02  0.50015346466E+02  0.51100000000E-03 0.  1.
         23    2    1    0    0    0  0.21355992017E+02 -0.18012762870E+02 -0.26344594842E+01  0.96937954494E+02  0.92787330080E+02 0.  0.
         11    1    3    3    0    0  0.23022465543E+01 -0.39776932882E+01 -0.46696988776E+02  0.46922608027E+02  0.51100000000E-03 0. -1.
         22    1    1    0    0    0 -0.21355992017E+02  0.18012762870E+02  0.26344594842E+01  0.28062045506E+02  0.00000000000E+00 0. -1.
</event>
<event>
 5    1  0.1096978E-009  0.9118800E+02  0.7818608E-02  0.1130116E+00
         25   -1    0    0    0    0  0.00000000000E+00  0.00000000000E+00  0.99999998245E-14  0.12500000000E+03  0.12500000000E+03 0.  0.
        -11    1    3    3    0    0 -0.21758776560E+02 -0.56501079828E+00  0.35779896771E+02  0.41880360645E+02  0.51100000000E-03 0.  1.
         23    2    1    0    0    0 -0.11862548439E+02  0.28684842638E+02 -0.55451492968E+01  0.93467652587E+02  0.87988142080E+02 0.  0.
         11    1    3    3    0    0  0.98962281212E+01  0.29249853437E+02 -0.41325046068E+02  0.51587291942E+02  0.51100000000E-03 0. -1.
         22    1    1    0    0    0  0.11862548439E+02 -0.28684842638E+02  0.55451492968E+01  0.31532347413E+02  0.00000000000E+00 0.  1.
</event>
<event>
 5    1  0.1096978E-009  0.9118800E+02  0.7818608E-02  0.1130116E+00
         25   -1    0    0    0    0  0.00000000000E+00  0.00000000000E+00  0.99999998245E-14  0.12500000000E+03  0.12500000000E+03 0.  0.
        -11    1    3    3    0    0 -0.69392164603E+01 -0.14561932799E+01  0.44951545478E+02  0.45507303426E+02  0.51100000000E-03 0.  1.
         23    2    1    0    0    0 -0.28437435224E+02  0.65012518077E+01  0.15505369412E+00  0.95828472120E+02  0.91280436184E+02 0.  0.
         11    1    3    3    0    0 -0.21498218764E+02  0.79574450877E+01 -0.44796491784E+02  0.50321168694E+02  0.51100000000E-03 0. -1.
         22    1    1    0    0    0  0.28437435224E+02 -0.65012518077E+01 -0.15505369412E+00  0.29171527880E+02  0.00000000000E+00 0.  1.
</event>
<event>
 5    1  0.1096978E-009  0.9118800E+02  0.7818608E-02  0.1130116E+00
         25   -1    0    0    0    0  0.00000000000E+00  0.00000000000E+00  0.99999998245E-14  0.12500000000E+03  0.12500000000E+03 0.  0.
        -11    1    3    3    0    0  0.24424902149E+02  0.36156933714E+02 -0.43190815415E+02  0.61395001727E+02  0.51100000000E-03 0.  1.
         23    2    1    0    0    0  0.16680172853E+02  0.20346009761E+02 -0.14767271638E+02  0.94829474793E+02  0.89901994963E+02 0.  0.
         11    1    3    3    0    0 -0.77447292966E+01 -0.15810923953E+02  0.28423543777E+02  0.33434473066E+02  0.51100000000E-03 0. -1.
         22    1    1    0    0    0 -0.16680172853E+02 -0.20346009761E+02  0.14767271638E+02  0.30170525207E+02  0.00000000000E+00 0.  1.
</event>
<event>
 5    1  0.1096978E-009  0.9118800E+02  0.7818608E-02  0.1130116E+00
         25   -1    0    0    0    0  0.00000000000E+00  0.00000000000E+00  0.99999998245E-14  0.12500000000E+03  0.12500000000E+03 0.  0.
        -11    1    3    3    0    0  0.53041451139E+00  0.37611804863E+01  0.45875209093E+02  0.46032191212E+02  0.51100000000E-03 0.  1.
         23    2    1    0    0    0  0.27652852971E+02 -0.85245748341E+01  0.65970124310E+01  0.95320558857E+02  0.90582226260E+02 0.  0.
         11    1    3    3    0    0  0.27122438460E+02 -0.12285755320E+02 -0.39278196662E+02  0.49288367645E+02  0.51100000000E-03 0. -1.
         22    1    1    0    0    0 -0.27652852971E+02  0.85245748341E+01 -0.65970124310E+01  0.29679441143E+02  0.00000000000E+00 0.  1.
</event>
<event>
 5    1  0.1096978E-009  0.9118800E+02  0.7818608E-02  0.1130116E+00
         25   -1    0    0    0    0  0.00000000000E+00  0.00000000000E+00  0.99999998245E-14  0.12500000000E+03  0.12500000000E+03 0.  0.
        -11    1    3    3    0    0 -0.14897144486E+02 -0.37361431435E+02  0.35618698828E+02  0.53726094025E+02  0.51100000000E-03 0. -1.
         23    2    1    0    0    0  0.85010569698E+01 -0.35320039772E+01  0.27957054454E+02  0.95566347229E+02  0.90920772144E+02 0.  0.
         11    1    3    3    0    0  0.23398201455E+02  0.33829427458E+02 -0.76616443744E+01  0.41840253205E+02  0.51100000000E-03 0.  1.
         22    1    1    0    0    0 -0.85010569698E+01  0.35320039772E+01 -0.27957054454E+02  0.29433652771E+02  0.00000000000E+00 0. -1.
</event>
<event>
 5    1  0.1096978E-009  0.9118800E+02  0.7818608E-02  0.1130116E+00
         25   -1    0    0    0    0  0.00000000000E+00  0.00000000000E+00  0.99999998245E-14  0.12500000000E+03  0.12500000000E+03 0.  0.
        -11    1    3    3    0    0  0.66748968972E+01  0.58167785442E+02 -0.11505393443E+02  0.59669251632E+02  0.51100000000E-03 0.  1.
         23    2    1    0    0    0 -0.33204040548E+00  0.24668193372E+02 -0.17943746164E+02  0.94494131033E+02  0.89434516593E+02 0.  0.
         11    1    3    3    0    0 -0.70069373027E+01 -0.33499592070E+02 -0.64383527203E+01  0.34824879400E+02  0.51100000000E-03 0. -1.
         22    1    1    0    0    0  0.33204040548E+00 -0.24668193372E+02  0.17943746164E+02  0.30505868967E+02  0.00000000000E+00 0.  1.
</event>
<event>
 5    1  0.1096978E-009  0.9118800E+02  0.7818608E-02  0.1130116E+00
         25   -1    0    0    0    0  0.00000000000E+00  0.00000000000E+00  0.99999998245E-14  0.12500000000E+03  0.12500000000E+03 0.  0.
        -11    1    3    3    0    0  0.53948873988E+02 -0.13044436970E+02  0.88466510649E+01  0.56204106396E+02  0.51100000000E-03 0.  1.
         23    2    1    0    0    0  0.19130333531E+02 -0.89170740138E+00  0.22431690292E+02  0.95505160918E+02  0.90836612825E+02 0.  0.
         11    1    3    3    0    0 -0.34818540457E+02  0.12152729568E+02  0.13585039227E+02  0.39301054522E+02  0.51100000000E-03 0. -1.
         22    1    1    0    0    0 -0.19130333531E+02  0.89170740138E+00 -0.22431690292E+02  0.29494839082E+02  0.00000000000E+00 0.  1.
</event>
<event>
 5    1  0.1096978E-009  0.9118800E+02  0.7818608E-02  0.1130116E+00
         25   -1    0    0    0    0  0.00000000000E+00  0.00000000000E+00  0.99999998245E-14  0.12500000000E+03  0.12500000000E+03 0.  0.
        -11    1    3    3    0    0  0.37720607339E+02  0.17214083900E+02  0.11342008067E+02  0.42986161143E+02  0.51100000000E-03 0.  1.
         23    2    1    0    0    0  0.10539246680E+02 -0.14876104449E+02  0.30709698459E+02  0.89286420180E+02  0.81832787102E+02 0.  0.
         11    1    3    3    0    0 -0.27181360659E+02 -0.32090188349E+02  0.19367690392E+02  0.46300259037E+02  0.51100000000E-03 0. -1.
         22    1    1    0    0    0 -0.10539246680E+02  0.14876104449E+02 -0.30709698459E+02  0.35713579820E+02  0.00000000000E+00 0. -1.
</event>
<event>
 5    1  0.1096978E-009  0.9118800E+02  0.7818608E-02  0.1130116E+00
         25   -1    0    0    0    0  0.00000000000E+00  0.00000000000E+00  0.99999998245E-14  0.12500000000E+03  0.12500000000E+03 0.  0.
        -11    1    3    3    0    0  0.26297869001E+00  0.43195875250E+02 -0.45141255112E+02  0.62479482310E+02  0.51100000000E-03 0.  1.
         23    2    1    0    0    0 -0.13331966910E+00  0.28686478414E+02 -0.31437085370E+02  0.82441544266E+02  0.70607266385E+02 0.  0.
         11    1    3    3    0    0 -0.39629835911E+00 -0.14509396836E+02  0.13704169742E+02  0.19962061955E+02  0.51100000000E-03 0. -1.
         22    1    1    0    0    0  0.13331966910E+00 -0.28686478414E+02  0.31437085370E+02  0.42558455734E+02  0.00000000000E+00 0.  1.
</event>
<event>
 5    1  0.1096978E-009  0.9118800E+02  0.7818608E-02  0.1130116E+00
         25   -1    0    0    0    0  0.00000000000E+00  0.00000000000E+00  0.99999998245E-14  0.12500000000E+03  0.12500000000E+03 0.  0.
        -11    1    3    3    0    0 -0.42005601375E+02  0.21568573139E+02 -0.38001172947E+02  0.60611575130E+02  0.51100000000E-03 0.  1.
         23    2    1    0    0    0 -0.14057522539E+02  0.19380569654E+02 -0.17851726731E+02  0.95135228658E+02  0.90326115628E+02 0.  0.
         11    1    3    3    0    0  0.27948078836E+02 -0.21880034849E+01  0.20149446215E+02  0.34523653528E+02  0.51100000000E-03 0. -1.
         22    1    1    0    0    0  0.14057522539E+02 -0.19380569654E+02  0.17851726731E+02  0.29864771342E+02  0.00000000000E+00 0.  1.
</event>
<event>
 5    1  0.1096978E-009  0.9118800E+02  0.7818608E-02  0.1130116E+00
         25   -1    0    0    0    0  0.00000000000E+00  0.00000000000E+00  0.99999998245E-14  0.12500000000E+03  0.12500000000E+03 0.  0.
        -11    1    3    3    0    0  0.43695911086E+02  0.24998736847E+02 -0.92035312319E+01  0.51175916963E+02  0.51100000000E-03 0.  1.
         23    2    1    0    0    0  0.25221483837E+02 -0.14353995589E+02  0.14779863033E+01  0.95942386888E+02  0.91436298711E+02 0.  0.
         11    1    3    3    0    0 -0.18474427250E+02 -0.39352732436E+02  0.10681517535E+02  0.44766469924E+02  0.51100000000E-03 0. -1.
         22    1    1    0    0    0 -0.25221483837E+02  0.14353995589E+02 -0.14779863033E+01  0.29057613112E+02  0.00000000000E+00 0. -1.
</event>
<event>
 5    1  0.1096978E-009  0.9118800E+02  0.7818608E-02  0.1130116E+00
         25   -1    0    0    0    0  0.00000000000E+00  0.00000000000E+00  0.99999998245E-14  0.12500000000E+03  0.12500000000E+03 0.  0.
        -11    1    3    3    0    0  0.52271828146E+02 -0.25369373342E+02  0.93826428782E+00  0.58110493558E+02  0.51100000000E-03 0.  1.
         23    2    1    0    0    0  0.23609579241E+02 -0.63720033571E+01 -0.15316271061E+02  0.96145142213E+02  0.91713060974E+02 0.  0.
         11    1    3    3    0    0 -0.28662248905E+02  0.18997369985E+02 -0.16254535348E+02  0.38034648655E+02  0.51100000000E-03 0. -1.
         22    1    1    0    0    0 -0.23609579241E+02  0.63720033571E+01  0.15316271061E+02  0.28854857787E+02  0.00000000000E+00 0.  1.
</event>
<event>
 5    1  0.1096978E-009  0.9118800E+02  0.7818608E-02  0.1130116E+00
         25   -1    0    0    0    0  0.00000000000E+00  0.00000000000E+00  0.99999998245E-14  0.12500000000E+03  0.12500000000E+03 0.  0.
        -11    1    3    3    0    0 -0.68884081651E+01 -0.37515529621E+02 -0.14296513851E-01  0.38142697000E+02  0.51100000000E-03 0.  1.
         23    2    1    0    0    0 -0.14673167379E+02  0.76091893187E+01 -0.28487551401E+02  0.92064575487E+02  0.85971762060E+02 0.  0.
         11    1    3    3    0    0 -0.77847592138E+01  0.45124718940E+02 -0.28473254887E+02  0.53921878487E+02  0.51100000000E-03 0. -1.
         22    1    1    0    0    0  0.14673167379E+02 -0.76091893187E+01  0.28487551401E+02  0.32935424513E+02  0.00000000000E+00 0. -1.
</event>
<event>
 5    1  0.1096978E-009  0.9118800E+02  0.7818608E-02  0.1130116E+00
         25   -1    0    0    0    0  0.00000000000E+00  0.00000000000E+00  0.99999998245E-14  0.12500000000E+03  0.12500000000E+03 0.  0.
        -11    1    3    3    0    0 -0.19903965591E+02 -0.23022340379E+02  0.49663458836E+02  0.58246503299E+02  0.51100000000E-03 0. -1.
         23    2    1    0    0    0  0.76328373660E+01 -0.13414283322E+02  0.16672758156E+02  0.10228031541E+03  0.99725016183E+02 0.  0.
         11    1    3    3    0    0  0.27536802957E+02  0.96080570564E+01 -0.32990700680E+02  0.44033812112E+02  0.51100000000E-03 0.  1.
         22    1    1    0    0    0 -0.76328373660E+01  0.13414283322E+02 -0.16672758156E+02  0.22719684589E+02  0.00000000000E+00 0. -1.
</event>
<event>
 5    1  0.1096978E-009  0.9118800E+02  0.7818608E-02  0.1130116E+00
         25   -1    0    0    0    0  0.00000000000E+00  0.00000000000E+00  0.99999998245E-14  0.12500000000E+03  0.12500000000E+03 0.  0.
        -11    1    3    3    0    0 -0.26893572311E+02 -0.12862912127E+02  0.20950456984E+02  0.36436799916E+02  0.51100000000E-03 0.  1.
         23    2    1    0    0    0 -0.27900797697E+01  0.15494476521E+02 -0.24930477354E+02  0.95514545130E+02  0.90849525494E+02 0.  0.
         11    1    3    3    0    0  0.24103492541E+02  0.28357388647E+02 -0.45880934338E+02  0.59077745214E+02  0.51100000000E-03 0. -1.
         22    1    1    0    0    0  0.27900797697E+01 -0.15494476521E+02  0.24930477354E+02  0.29485454870E+02  0.00000000000E+00 0. -1.
</event>
<event>
 5    1  0.1096978E-009  0.9118800E+02  0.7818608E-02  0.1130116E+00
         25   -1    0    0    0    0  0.00000000000E+00  0.00000000000E+00  0.99999998245E-14  0.12500000000E+03  0.12500000000E+03 0.  0.
        -11    1    3    3    0    0  0.57199640607E+01 -0.45365059297E+02  0.38137692265E+02  0.59541499523E+02  0.51100000000E-03 0.  1.
         23    2    1    0    0    0 -0.42190542955E+01 -0.28220202124E+02  0.84401979830E+01  0.95244039772E+02  0.90476571239E+02 0.  0.
         11    1    3    3    0    0 -0.99390183562E+01  0.17144857173E+02 -0.29697494282E+02  0.35702540249E+02  0.51100000000E-03 0. -1.
         22    1    1    0    0    0  0.42190542955E+01  0.28220202124E+02 -0.84401979830E+01  0.29755960228E+02  0.00000000000E+00 0.  1.
</event>
<event>
 5    1  0.1096978E-009  0.9118800E+02  0.7818608E-02  0.1130116E+00
         25   -1    0    0    0    0  0.00000000000E+00  0.00000000000E+00  0.99999998245E-14  0.12500000000E+03  0.12500000000E+03 0.  0.
        -11    1    3    3    0    0 -0.31013910265E+02 -0.69784439263E+01 -0.23516943114E+02  0.39542482513E+02  0.51100000000E-03 0.  1.
         23    2    1    0    0    0  0.20919422401E+02 -0.27723103821E+01 -0.25767274544E+02  0.91694439265E+02  0.85431901630E+02 0.  0.
         11    1    3    3    0    0  0.51933332666E+02  0.42061335443E+01 -0.22503314299E+01  0.52151956752E+02  0.51100000000E-03 0. -1.
         22    1    1    0    0    0 -0.20919422401E+02  0.27723103821E+01  0.25767274544E+02  0.33305560735E+02  0.00000000000E+00 0. -1.
</event>
<event>
 5    1  0.1096978E-009  0.9118800E+02  0.7818608E-02  0.1130116E+00
         25   -1    0    0    0    0  0.00000000000E+00  0.00000000000E+00  0.99999998245E-14  0.12500000000E+03  0.12500000000E+03 0.  0.
        -11    1    3    3    0    0  0.94655243824E+01  0.13511734260E+02  0.11447797222E+02  0.20080218526E+02  0.51100000000E-03 0.  1.
         23    2    1    0    0    0  0.18107122875E+02 -0.42677676466E+02  0.12657451203E+02  0.76943127044E+02  0.60089780837E+02 0.  0.
         11    1    3    3    0    0  0.86415984922E+01 -0.56189410726E+02  0.12096539814E+01  0.56862908519E+02  0.51100000000E-03 0. -1.
         22    1    1    0    0    0 -0.18107122875E+02  0.42677676466E+02 -0.12657451203E+02  0.48056872956E+02  0.00000000000E+00 0. -1.
</event>
<event>
 5    1  0.1096978E-009  0.9118800E+02  0.7818608E-02  0.1130116E+00
         25   -1    0    0    0    0  0.00000000000E+00  0.00000000000E+00  0.99999998245E-14  0.12500000000E+03  0.12500000000E+03 0.  0.
        -11    1    3    3    0    0 -0.25921944197E+02 -0.30303100145E+02 -0.32595775643E+02  0.51504462519E+02  0.51100000000E-03 0. -1.
         23    2    1    0    0    0 -0.28882674153E+02  0.18458298496E+01 -0.19911591475E+01  0.95989990196E+02  0.91501352717E+02 0.  0.
         11    1    3    3    0    0 -0.29607299561E+01  0.32148929995E+02  0.30604616495E+02  0.44485527678E+02  0.51100000000E-03 0.  1.
         22    1    1    0    0    0  0.28882674153E+02 -0.18458298496E+01  0.19911591475E+01  0.29010009804E+02  0.00000000000E+00 0. -1.
</event>
<event>
 5    1  0.1096978E-009  0.9118800E+02  0.7818608E-02  0.1130116E+00
         25   -1    0    0    0    0  0.00000000000E+00  0.00000000000E+00  0.99999998245E-14  0.12500000000E+03  0.12500000000E+03 0.  0.
        -11    1    3    3    0    0  0.28132683893E+02 -0.16818781030E+02 -0.11556082675E+02  0.34754314055E+02  0.51100000000E-03 0. -1.
         23    2    1    0    0    0 -0.67967985599E+01 -0.12811524908E+02  0.31488163155E+02  0.90332492735E+02  0.83415365393E+02 0.  0.
         11    1    3    3    0    0 -0.34929482453E+02  0.40072561221E+01  0.43044245830E+02  0.55578178680E+02  0.51100000000E-03 0.  1.
         22    1    1    0    0    0  0.67967985599E+01  0.12811524908E+02 -0.31488163155E+02  0.34667507265E+02  0.00000000000E+00 0.  1.
</event>
<event>
 5    1  0.1096978E-009  0.9118800E+02  0.7818608E-02  0.1130116E+00
         25   -1    0    0    0    0  0.00000000000E+00  0.00000000000E+00  0.99999998245E-14  0.12500000000E+03  0.12500000000E+03 0.  0.
        -11    1    3    3    0    0 -0.49161120779E+02 -0.14401491288E+02 -0.22650056679E+02  0.56011104394E+02  0.51100000000E-03 0.  1.
         23    2    1    0    0    0 -0.13643334423E+02 -0.31482482616E+01 -0.28041554225E+02  0.93657045375E+02  0.88256792054E+02 0.  0.
         11    1    3    3    0    0  0.35517786357E+02  0.11253243027E+02 -0.53914975462E+01  0.37645940981E+02  0.51100000000E-03 0. -1.
         22    1    1    0    0    0  0.13643334423E+02  0.31482482616E+01  0.28041554225E+02  0.31342954625E+02  0.00000000000E+00 0.  1.
</event>
<event>
 5    1  0.1096978E-009  0.9118800E+02  0.7818608E-02  0.1130116E+00
         25   -1    0    0    0    0  0.00000000000E+00  0.00000000000E+00  0.99999998245E-14  0.12500000000E+03  0.12500000000E+03 0.  0.
        -11    1    3    3    0    0  0.49936482091E+02 -0.12116176756E+02  0.36208241891E+01  0.51512759108E+02  0.51100000000E-03 0.  1.
         23    2    1    0    0    0  0.32010781917E+02  0.44810826453E+01 -0.21204676267E+02  0.86342419163E+02  0.77204953149E+02 0.  0.
         11    1    3    3    0    0 -0.17925700174E+02  0.16597259402E+02 -0.24825500456E+02  0.34829660055E+02  0.51100000000E-03 0. -1.
         22    1    1    0    0    0 -0.32010781917E+02 -0.44810826453E+01  0.21204676267E+02  0.38657580837E+02  0.00000000000E+00 0.  1.
</event>
<event>
 5    1  0.1096978E-009  0.9118800E+02  0.7818608E-02  0.1130116E+00
         25   -1    0    0    0    0  0.00000000000E+00  0.00000000000E+00  0.99999998245E-14  0.12500000000E+03  0.12500000000E+03 0.  0.
        -11    1    3    3    0    0  0.29510522090E+02  0.16271285739E+02 -0.22534947344E+02  0.40539480826E+02  0.51100000000E-03 0.  1.
         23    2    1    0    0    0 -0.19439409665E+02  0.21109064542E+02  0.33253894078E+01  0.96111568601E+02  0.91667290515E+02 0.  0.
         11    1    3    3    0    0 -0.48949931755E+02  0.48377788025E+01  0.25860336752E+02  0.55572087775E+02  0.51100000000E-03 0. -1.
         22    1    1    0    0    0  0.19439409665E+02 -0.21109064542E+02 -0.33253894078E+01  0.28888431399E+02  0.00000000000E+00 0. -1.
</event>
<event>
 5    1  0.1096978E-009  0.9118800E+02  0.7818608E-02  0.1130116E+00
         25   -1    0    0    0    0  0.00000000000E+00  0.00000000000E+00  0.99999998245E-14  0.12500000000E+03  0.12500000000E+03 0.  0.
        -11    1    3    3    0    0 -0.33974329817E+02  0.10547533335E+02  0.19706896153E+01  0.35628488093E+02  0.51100000000E-03 0.  1.
         23    2    1    0    0    0  0.24032263296E+02 -0.12122768407E+02  0.30025534348E+01  0.97916305272E+02  0.94096101502E+02 0.  0.
         11    1    3    3    0    0  0.58006593113E+02 -0.22670301743E+02  0.10318638195E+01  0.62287817179E+02  0.51100000000E-03 0. -1.
         22    1    1    0    0    0 -0.24032263296E+02  0.12122768407E+02 -0.30025534348E+01  0.27083694728E+02  0.00000000000E+00 0. -1.
</event>
<event>
 5    1  0.1096978E-009  0.9118800E+02  0.7818608E-02  0.1130116E+00
         25   -1    0    0    0    0  0.00000000000E+00  0.00000000000E+00  0.99999998245E-14  0.12500000000E+03  0.12500000000E+03 0.  0.
        -11    1    3    3    0    0  0.24307744341E+02  0.11931942846E+02 -0.11826088364E+02  0.29548165109E+02  0.51100000000E-03 0. -1.
         23    2    1    0    0    0 -0.85863202865E+01 -0.19433667987E+02  0.27912301339E+02  0.89921674590E+02  0.82797455562E+02 0.  0.
         11    1    3    3    0    0 -0.32894064628E+02 -0.31365610833E+02  0.39738389703E+02  0.60373509482E+02  0.51100000000E-03 0.  1.
         22    1    1    0    0    0  0.85863202865E+01  0.19433667987E+02 -0.27912301339E+02  0.35078325410E+02  0.00000000000E+00 0.  1.
</event>
<event>
 5    1  0.1096978E-009  0.9118800E+02  0.7818608E-02  0.1130116E+00
         25   -1    0    0    0    0  0.00000000000E+00  0.00000000000E+00  0.99999998245E-14  0.12500000000E+03  0.12500000000E+03 0.  0.
        -11    1    3    3    0    0 -0.23496490406E+01  0.32071848841E+02  0.30182905428E+02  0.44103651992E+02  0.51100000000E-03 0. -1.
         23    2    1    0    0    0 -0.25807398561E+02  0.64347472616E+01 -0.94135446975E+01  0.96785772799E+02  0.92582088979E+02 0.  0.
         11    1    3    3    0    0 -0.23457749520E+02 -0.25637101579E+02 -0.39596450125E+02  0.52682120807E+02  0.51100000000E-03 0.  1.
         22    1    1    0    0    0  0.25807398561E+02 -0.64347472616E+01  0.94135446975E+01  0.28214227201E+02  0.00000000000E+00 0. -1.
</event>
<event>
 5    1  0.1096978E-009  0.9118800E+02  0.7818608E-02  0.1130116E+00
         25   -1    0    0    0    0  0.00000000000E+00  0.00000000000E+00  0.99999998245E-14  0.12500000000E+03  0.12500000000E+03 0.  0.
        -11    1    3    3    0    0  0.64920999387E+01 -0.10719501841E+02  0.42970788079E+02  0.44760961895E+02  0.51100000000E-03 0. -1.
         23    2    1    0    0    0 -0.20944721536E+02  0.17691859222E+02  0.11472200590E+02  0.95279726964E+02  0.90525862277E+02 0.  0.
         11    1    3    3    0    0 -0.27436821475E+02  0.28411361063E+02 -0.31498587489E+02  0.50518765069E+02  0.51100000000E-03 0.  1.
         22    1    1    0    0    0  0.20944721536E+02 -0.17691859222E+02 -0.11472200590E+02  0.29720273036E+02  0.00000000000E+00 0.  1.
</event>
<event>
 5    1  0.1096978E-009  0.9118800E+02  0.7818608E-02  0.1130116E+00
         25   -1    0    0    0    0  0.00000000000E+00  0.00000000000E+00  0.99999998245E-14  0.12500000000E+03  0.12500000000E+03 0.  0.
        -11    1    3    3    0    0 -0.62273175532E+01  0.41084912143E+02  0.35016509910E+02  0.54340642766E+02  0.51100000000E-03 0. -1.
         23    2    1    0    0    0  0.19464853224E+02  0.21590182140E+02  0.15145107921E+02  0.92222099369E+02  0.86200492123E+02 0.  0.
         11    1    3    3    0    0  0.25692170777E+02 -0.19494730003E+02 -0.19871401989E+02  0.37881456603E+02  0.51100000000E-03 0.  1.
         22    1    1    0    0    0 -0.19464853224E+02 -0.21590182140E+02 -0.15145107921E+02  0.32777900631E+02  0.00000000000E+00 0. -1.
</event>
<event>
 5    1  0.1096978E-009  0.9118800E+02  0.7818608E-02  0.1130116E+00
         25   -1    0    0    0    0  0.00000000000E+00  0.00000000000E+00  0.99999998245E-14  0.12500000000E+03  0.12500000000E+03 0.  0.
        -11    1    3    3    0    0 -0.40255954897E+02 -0.55623116821E+01 -0.34696228667E+01  0.40786266059E+02  0.51100000000E-03 0.  1.
         23    2    1    0    0    0  0.77072188312E+01  0.32408160363E+01 -0.28287547451E+02  0.95502721287E+02  0.90833255593E+02 0.  0.
         11    1    3    3    0    0  0.47963173729E+02  0.88031277184E+01 -0.24817924584E+02  0.54716455228E+02  0.51100000000E-03 0. -1.
         22    1    1    0    0    0 -0.77072188312E+01 -0.32408160363E+01  0.28287547451E+02  0.29497278713E+02  0.00000000000E+00 0. -1.
</event>
<event>
 5    1  0.1096978E-009  0.9118800E+02  0.7818608E-02  0.1130116E+00
         25   -1    0    0    0    0  0.00000000000E+00  0.00000000000E+00  0.99999998245E-14  0.12500000000E+03  0.12500000000E+03 0.  0.
        -11    1    3    3    0    0 -0.43935137840E+02 -0.39772402577E+01 -0.17166542180E+02  0.47337141314E+02  0.51100000000E-03 0. -1.
         23    2    1    0    0    0 -0.54567654362E+01  0.23325770066E+02 -0.18802972548E+02  0.94546435105E+02  0.89507590606E+02 0.  0.
         11    1    3    3    0    0  0.38478372404E+02  0.27303010324E+02 -0.16364303686E+01  0.47209293791E+02  0.51100000000E-03 0.  1.
         22    1    1    0    0    0  0.54567654362E+01 -0.23325770066E+02  0.18802972548E+02  0.30453564895E+02  0.00000000000E+00 0.  1.
</event>
<event>
 5    1  0.1096978E-009  0.9118800E+02  0.7818608E-02  0.1130116E+00
         25   -1    0    0    0    0  0.00000000000E+00  0.00000000000E+00  0.99999998245E-14  0.12500000000E+03  0.12500000000E+03 0.  0.
        -11    1    3    3    0    0  0.35085712875E+02 -0.26833969988E+02 -0.33672900356E+01  0.44299072628E+02  0.51100000000E-03 0. -1.
         23    2    1    0    0    0 -0.15603847711E+02 -0.24507107383E+02 -0.68128771600E+01  0.95158859424E+02  0.90358811723E+02 0.  0.
         11    1    3    3    0    0 -0.50689560586E+02  0.23268626050E+01 -0.34455871244E+01  0.50859786795E+02  0.51100000000E-03 0.  1.
         22    1    1    0    0    0  0.15603847711E+02  0.24507107383E+02  0.68128771600E+01  0.29841140576E+02  0.00000000000E+00 0.  1.
</event>
<event>
 5    1  0.1096978E-009  0.9118800E+02  0.7818608E-02  0.1130116E+00
         25   -1    0    0    0    0  0.00000000000E+00  0.00000000000E+00  0.99999998245E-14  0.12500000000E+03  0.12500000000E+03 0.  0.
        -11    1    3    3    0    0 -0.26111365267E+02  0.35392675377E+01  0.17431415034E+02  0.31594050724E+02  0.51100000000E-03 0.  1.
         23    2    1    0    0    0 -0.10553416908E+02 -0.36045477921E+02 -0.14459148429E+02  0.84754278981E+02  0.74589340695E+02 0.  0.
         11    1    3    3    0    0  0.15557948359E+02 -0.39584745459E+02 -0.31890563463E+02  0.53160228258E+02  0.51100000000E-03 0. -1.
         22    1    1    0    0    0  0.10553416908E+02  0.36045477921E+02  0.14459148429E+02  0.40245721019E+02  0.00000000000E+00 0. -1.
</event>
<event>
 5    1  0.1096978E-009  0.9118800E+02  0.7818608E-02  0.1130116E+00
         25   -1    0    0    0    0  0.00000000000E+00  0.00000000000E+00  0.99999998245E-14  0.12500000000E+03  0.12500000000E+03 0.  0.
        -11    1    3    3    0    0 -0.11569134457E+02 -0.36588009382E+02 -0.31678559773E+01  0.38504059713E+02  0.51100000000E-03 0.  1.
         23    2    1    0    0    0  0.74914404142E+01  0.16593906119E+02 -0.20485490475E+02  0.97593162901E+02  0.93665846098E+02 0.  0.
         11    1    3    3    0    0  0.19060574871E+02  0.53181915501E+02 -0.17317634498E+02  0.59089103188E+02  0.51100000000E-03 0. -1.
         22    1    1    0    0    0 -0.74914404142E+01 -0.16593906119E+02  0.20485490475E+02  0.27406837099E+02  0.00000000000E+00 0. -1.
</event>
<event>
 5    1  0.1096978E-009  0.9118800E+02  0.7818608E-02  0.1130116E+00
         25   -1    0    0    0    0  0.00000000000E+00  0.00000000000E+00  0.99999998245E-14  0.12500000000E+03  0.12500000000E+03 0.  0.
        -11    1    3    3    0    0 -0.22214279537E+02 -0.22901210093E+02 -0.27068565714E+02  0.41840732416E+02  0.51100000000E-03 0. -1.
         23    2    1    0    0    0 -0.22470569731E+00 -0.14860753077E+02  0.23287559661E+02  0.97373872699E+02  0.93372737856E+02 0.  0.
         11    1    3    3    0    0  0.21989573839E+02  0.80404570158E+01  0.50356125375E+02  0.55533140283E+02  0.51100000000E-03 0.  1.
         22    1    1    0    0    0  0.22470569731E+00  0.14860753077E+02 -0.23287559661E+02  0.27626127301E+02  0.00000000000E+00 0.  1.
</event>
<event>
 5    1  0.1096978E-009  0.9118800E+02  0.7818608E-02  0.1130116E+00
         25   -1    0    0    0    0  0.00000000000E+00  0.00000000000E+00  0.99999998245E-14  0.12500000000E+03  0.12500000000E+03 0.  0.
        -11    1    3    3    0    0  0.12565235956E+02 -0.19678407645E+02  0.46452667267E+02  0.51990145014E+02  0.51100000000E-03 0. -1.
         23    2    1    0    0    0  0.26265592964E+02 -0.10218396354E+02  0.53815199895E+01  0.96307531385E+02  0.91934122318E+02 0.  0.
         11    1    3    3    0    0  0.13700357008E+02  0.94600112911E+01 -0.41071147278E+02  0.44317386371E+02  0.51100000000E-03 0.  1.
         22    1    1    0    0    0 -0.26265592964E+02  0.10218396354E+02 -0.53815199895E+01  0.28692468615E+02  0.00000000000E+00 0. -1.
</event>
<event>
 5    1  0.1096978E-009  0.9118800E+02  0.7818608E-02  0.1130116E+00
         25   -1    0    0    0    0  0.00000000000E+00  0.00000000000E+00  0.99999998245E-14  0.12500000000E+03  0.12500000000E+03 0.  0.
        -11    1    3    3    0    0 -0.20130194299E+02  0.40790529388E+02  0.13251177916E+02  0.47378114427E+02  0.51100000000E-03 0.  1.
         23    2    1    0    0    0  0.18826853737E+02  0.24159409824E+02 -0.58052097022E+01  0.93825844608E+02  0.88495543120E+02 0.  0.
         11    1    3    3    0    0  0.38957048036E+02 -0.16631119564E+02 -0.19056387618E+02  0.46447730181E+02  0.51100000000E-03 0. -1.
         22    1    1    0    0    0 -0.18826853737E+02 -0.24159409824E+02  0.58052097022E+01  0.31174155392E+02  0.00000000000E+00 0. -1.
</event>
<event>
 5    1  0.1096978E-009  0.9118800E+02  0.7818608E-02  0.1130116E+00
         25   -1    0    0    0    0  0.00000000000E+00  0.00000000000E+00  0.99999998245E-14  0.12500000000E+03  0.12500000000E+03 0.  0.
        -11    1    3    3    0    0 -0.12603361085E+02  0.45483596437E+02 -0.22686776080E+01  0.47251975132E+02  0.51100000000E-03 0.  1.
         23    2    1    0    0    0 -0.11044019214E+02  0.38221073499E+01 -0.26897037777E+02  0.95673740331E+02  0.91068298999E+02 0.  0.
         11    1    3    3    0    0  0.15593418712E+01 -0.41661489087E+02 -0.24628360169E+02  0.48421765199E+02  0.51100000000E-03 0. -1.
         22    1    1    0    0    0  0.11044019214E+02 -0.38221073499E+01  0.26897037777E+02  0.29326259669E+02  0.00000000000E+00 0.  1.
</event>
<event>
 5    1  0.1096978E-009  0.9118800E+02  0.7818608E-02  0.1130116E+00
         25   -1    0    0    0    0  0.00000000000E+00  0.00000000000E+00  0.99999998245E-14  0.12500000000E+03  0.12500000000E+03 0.  0.
        -11    1    3    3    0    0  0.13292099476E+02  0.76282832936E+01  0.29138994543E+02  0.32923420505E+02  0.51100000000E-03 0.  1.
         23    2    1    0    0    0 -0.37801041309E+01 -0.15663851813E+02 -0.25564041254E+02  0.94781369222E+02  0.89835083935E+02 0.  0.
         11    1    3    3    0    0 -0.17072203607E+02 -0.23292135106E+02 -0.54703035797E+02  0.61857948717E+02  0.51100000000E-03 0. -1.
         22    1    1    0    0    0  0.37801041309E+01  0.15663851813E+02  0.25564041254E+02  0.30218630778E+02  0.00000000000E+00 0. -1.
</event>
<event>
 5    1  0.1096978E-009  0.9118800E+02  0.7818608E-02  0.1130116E+00
         25   -1    0    0    0    0  0.00000000000E+00  0.00000000000E+00  0.99999998245E-14  0.12500000000E+03  0.12500000000E+03 0.  0.
        -11    1    3    3    0    0  0.34098775079E+02 -0.46063259894E+02  0.19723621601E+02  0.60609996067E+02  0.51100000000E-03 0.  1.
         23    2    1    0    0    0  0.20310954770E+02 -0.38957789596E+02  0.73433194450E+01  0.80455992610E+02  0.66999986212E+02 0.  0.
         11    1    3    3    0    0 -0.13787820309E+02  0.71054702978E+01 -0.12380302156E+02  0.19845996542E+02  0.51100000000E-03 0. -1.
         22    1    1    0    0    0 -0.20310954770E+02  0.38957789596E+02 -0.73433194450E+01  0.44544007390E+02  0.00000000000E+00 0.  1.
</event>
<event>
 5    1  0.1096978E-009  0.9118800E+02  0.7818608E-02  0.1130116E+00
         25   -1    0    0    0    0  0.00000000000E+00  0.00000000000E+00  0.99999998245E-14  0.12500000000E+03  0.12500000000E+03 0.  0.
        -11    1    3    3    0    0 -0.11471967278E+02  0.55085051896E+02 -0.23106510541E+02  0.60826637300E+02  0.51100000000E-03 0. -1.
         23    2    1    0    0    0  0.28563642243E+01  0.29403605403E+02 -0.59783732648E+01  0.94859134482E+02  0.89943224429E+02 0.  0.
         11    1    3    3    0    0  0.14328331503E+02 -0.25681446493E+02  0.17128137276E+02  0.34032497182E+02  0.51100000000E-03 0.  1.
         22    1    1    0    0    0 -0.28563642243E+01 -0.29403605403E+02  0.59783732648E+01  0.30140865518E+02  0.00000000000E+00 0. -1.
</event>
<event>
 5    1  0.1096978E-009  0.9118800E+02  0.7818608E-02  0.1130116E+00
         25   -1    0    0    0    0  0.00000000000E+00  0.00000000000E+00  0.99999998245E-14  0.12500000000E+03  0.12500000000E+03 0.  0.
        -11    1    3    3    0    0  0.50478414464E+01 -0.22464461901E+02  0.54784586511E+02  0.59426287712E+02  0.51100000000E-03 0.  1.
         23    2    1    0    0    0 -0.58035399127E+01  0.36540894147E+00  0.28575583672E+02  0.95838748631E+02  0.91294507818E+02 0.  0.
         11    1    3    3    0    0 -0.10851381359E+02  0.22829870842E+02 -0.26209002839E+02  0.36412460919E+02  0.51100000000E-03 0. -1.
         22    1    1    0    0    0  0.58035399127E+01 -0.36540894147E+00 -0.28575583672E+02  0.29161251369E+02  0.00000000000E+00 0.  1.
</event>
<event>
 5    1  0.1096978E-009  0.9118800E+02  0.7818608E-02  0.1130116E+00
         25   -1    0    0    0    0  0.00000000000E+00  0.00000000000E+00  0.99999998245E-14  0.12500000000E+03  0.12500000000E+03 0.  0.
        -11    1    3    3    0    0 -0.41364773306E+01 -0.32144781955E+02 -0.26619692481E+02  0.41940499279E+02  0.51100000000E-03 0.  1.
         23    2    1    0    0    0 -0.28730546824E+01  0.14561056833E+02  0.14551432346E+02  0.10421483696E+03  0.10212105189E+03 0.  0.
         11    1    3    3    0    0  0.12634226482E+01  0.46705838789E+02  0.41171124827E+02  0.62274337681E+02  0.51100000000E-03 0. -1.
         22    1    1    0    0    0  0.28730546824E+01 -0.14561056833E+02 -0.14551432346E+02  0.20785163041E+02  0.00000000000E+00 0. -1.
</event>
<event>
 5    1  0.1096978E-009  0.9118800E+02  0.7818608E-02  0.1130116E+00
         25   -1    0    0    0    0  0.00000000000E+00  0.00000000000E+00  0.99999998245E-14  0.12500000000E+03  0.12500000000E+03 0.  0.
        -11    1    3    3    0    0 -0.11640246459E+02  0.23363231416E+02  0.44613817927E+02  0.51688767350E+02  0.51100000000E-03 0. -1.
         23    2    1    0    0    0  0.11514179903E+02  0.31546211014E+02  0.24532835090E+02  0.83411542879E+02  0.72304119659E+02 0.  0.
         11    1    3    3    0    0  0.23154426363E+02  0.81829795974E+01 -0.20080982838E+02  0.31722775529E+02  0.51100000000E-03 0.  1.
         22    1    1    0    0    0 -0.11514179903E+02 -0.31546211014E+02 -0.24532835090E+02  0.41588457121E+02  0.00000000000E+00 0. -1.
</event>
<event>
 5    1  0.1096978E-009  0.9118800E+02  0.7818608E-02  0.1130116E+00
         25   -1    0    0    0    0  0.00000000000E+00  0.00000000000E+00  0.99999998245E-14  0.12500000000E+03  0.12500000000E+03 0.  0.
        -11    1    3    3    0    0  0.41908339436E+02  0.31383337954E+02 -0.90973771838E+01  0.53141180711E+02  0.51100000000E-03 0. -1.
         23    2    1    0    0    0  0.20095302251E+02  0.83641471423E+01  0.19449516287E+02  0.95809867870E+02  0.91254955852E+02 0.  0.
         11    1    3    3    0    0 -0.21813037185E+02 -0.23019190812E+02  0.28546893470E+02  0.42668687160E+02  0.51100000000E-03 0.  1.
         22    1    1    0    0    0 -0.20095302251E+02 -0.83641471423E+01 -0.19449516287E+02  0.29190132130E+02  0.00000000000E+00 0. -1.
</event>
<event>
 5    1  0.1096978E-009  0.9118800E+02  0.7818608E-02  0.1130116E+00
         25   -1    0    0    0    0  0.00000000000E+00  0.00000000000E+00  0.99999998245E-14  0.12500000000E+03  0.12500000000E+03 0.  0.
        -11    1    3    3    0    0  0.50613782029E+02 -0.97112757942E+01  0.24408682004E+02  0.57024973180E+02  0.51100000000E-03 0.  1.
         23    2    1    0    0    0  0.14653607766E+02 -0.20823400752E+02  0.64210699136E+01  0.98740289829E+02  0.95184412890E+02 0.  0.
         11    1    3    3    0    0 -0.35960174263E+02 -0.11112124958E+02 -0.17987612090E+02  0.41715316648E+02  0.51100000000E-03 0. -1.
         22    1    1    0    0    0 -0.14653607766E+02  0.20823400752E+02 -0.64210699136E+01  0.26259710171E+02  0.00000000000E+00 0.  1.
</event>
<event>
 5    1  0.1096978E-009  0.9118800E+02  0.7818608E-02  0.1130116E+00
         25   -1    0    0    0    0  0.00000000000E+00  0.00000000000E+00  0.99999998245E-14  0.12500000000E+03  0.12500000000E+03 0.  0.
        -11    1    3    3    0    0 -0.12897705000E+02  0.46672040099E+01 -0.50186912803E+02  0.52027490853E+02  0.51100000000E-03 0. -1.
         23    2    1    0    0    0 -0.26281067241E+02 -0.86236288774E+01 -0.11543958756E+02  0.95027938775E+02  0.90177517673E+02 0.  0.
         11    1    3    3    0    0 -0.13383362241E+02 -0.13290832887E+02  0.38642954047E+02  0.43000447921E+02  0.51100000000E-03 0.  1.
         22    1    1    0    0    0  0.26281067241E+02  0.86236288774E+01  0.11543958756E+02  0.29972061225E+02  0.00000000000E+00 0. -1.
</event>
<event>
 5    1  0.1096978E-009  0.9118800E+02  0.7818608E-02  0.1130116E+00
         25   -1    0    0    0    0  0.00000000000E+00  0.00000000000E+00  0.99999998245E-14  0.12500000000E+03  0.12500000000E+03 0.  0.
        -11    1    3    3    0    0 -0.32246126428E+02  0.50967537347E+02 -0.15718345495E+02  0.62326310000E+02  0.51100000000E-03 0.  1.
         23    2    1    0    0    0 -0.17966925625E+02  0.22247557905E+02 -0.73314343333E+01  0.95478581021E+02  0.90800028938E+02 0.  0.
         11    1    3    3    0    0  0.14279200803E+02 -0.28719979442E+02  0.83869111613E+01  0.33152271020E+02  0.51100000000E-03 0. -1.
         22    1    1    0    0    0  0.17966925625E+02 -0.22247557905E+02  0.73314343333E+01  0.29521418979E+02  0.00000000000E+00 0.  1.
</event>
<event>
 5    1  0.1096978E-009  0.9118800E+02  0.7818608E-02  0.1130116E+00
         25   -1    0    0    0    0  0.00000000000E+00  0.00000000000E+00  0.99999998245E-14  0.12500000000E+03  0.12500000000E+03 0.  0.
        -11    1    3    3    0    0  0.11251908755E+02 -0.28193029488E+02  0.37149131332E+02  0.47974058837E+02  0.51100000000E-03 0.  1.
         23    2    1    0    0    0  0.96651670845E+01 -0.30504371430E+02 -0.70265985333E+01  0.92238662755E+02  0.86224507472E+02 0.  0.
         11    1    3    3    0    0 -0.15867416708E+01 -0.23113419421E+01 -0.44175729865E+02  0.44264603918E+02  0.51100000000E-03 0. -1.
         22    1    1    0    0    0 -0.96651670845E+01  0.30504371430E+02  0.70265985333E+01  0.32761337245E+02  0.00000000000E+00 0.  1.
</event>
<event>
 5    1  0.1096978E-009  0.9118800E+02  0.7818608E-02  0.1130116E+00
         25   -1    0    0    0    0  0.00000000000E+00  0.00000000000E+00  0.99999998245E-14  0.12500000000E+03  0.12500000000E+03 0.  0.
        -11    1    3    3    0    0 -0.27889233837E+02 -0.21292292876E+02  0.45028976895E+01  0.35375799465E+02  0.51100000000E-03 0. -1.
         23    2    1    0    0    0  0.19803384879E+02  0.60305117631E+01  0.23640443668E+02  0.93576892235E+02  0.88143196327E+02 0.  0.
         11    1    3    3    0    0  0.47692618716E+02  0.27322804639E+02  0.19137545979E+02  0.58201092770E+02  0.51100000000E-03 0.  1.
         22    1    1    0    0    0 -0.19803384879E+02 -0.60305117631E+01 -0.23640443668E+02  0.31423107765E+02  0.00000000000E+00 0.  1.
</event>
<event>
 5    1  0.1096978E-009  0.9118800E+02  0.7818608E-02  0.1130116E+00
         25   -1    0    0    0    0  0.00000000000E+00  0.00000000000E+00  0.99999998245E-14  0.12500000000E+03  0.12500000000E+03 0.  0.
        -11    1    3    3    0    0 -0.29060635229E+02 -0.62656190557E+01 -0.20532046721E+02  0.36129537015E+02  0.51100000000E-03 0. -1.
         23    2    1    0    0    0 -0.14314818235E+01  0.66728764592E+00  0.30438860486E+02  0.94520192902E+02  0.89470935088E+02 0.  0.
         11    1    3    3    0    0  0.27629153406E+02  0.69329067016E+01  0.50970907207E+02  0.58390655888E+02  0.51100000000E-03 0.  1.
         22    1    1    0    0    0  0.14314818235E+01 -0.66728764592E+00 -0.30438860486E+02  0.30479807098E+02  0.00000000000E+00 0.  1.
</event>
<event>
 5    1  0.1096978E-009  0.9118800E+02  0.7818608E-02  0.1130116E+00
         25   -1    0    0    0    0  0.00000000000E+00  0.00000000000E+00  0.99999998245E-14  0.12500000000E+03  0.12500000000E+03 0.  0.
        -11    1    3    3    0    0 -0.18345817228E+02 -0.10704790213E+02  0.31681110179E+02  0.38142552165E+02  0.51100000000E-03 0. -1.
         23    2    1    0    0    0  0.26703695875E+02 -0.94762824493E+01 -0.49714097387E+01  0.96231923643E+02  0.91831263254E+02 0.  0.
         11    1    3    3    0    0  0.45049513103E+02  0.12285077633E+01 -0.36652519918E+02  0.58089371478E+02  0.51100000000E-03 0.  1.
         22    1    1    0    0    0 -0.26703695875E+02  0.94762824493E+01  0.49714097387E+01  0.28768076357E+02  0.00000000000E+00 0.  1.
</event>
<event>
 5    1  0.1096978E-009  0.9118800E+02  0.7818608E-02  0.1130116E+00
         25   -1    0    0    0    0  0.00000000000E+00  0.00000000000E+00  0.99999998245E-14  0.12500000000E+03  0.12500000000E+03 0.  0.
        -11    1    3    3    0    0  0.28506559106E+02  0.43803395554E+01  0.21732172756E+02  0.36112305654E+02  0.51100000000E-03 0. -1.
         23    2    1    0    0    0 -0.99242938081E+01 -0.29621575384E+02 -0.39806989395E+01  0.93507535824E+02  0.88044783810E+02 0.  0.
         11    1    3    3    0    0 -0.38430852914E+02 -0.34001914939E+02 -0.25712871695E+02  0.57395230170E+02  0.51100000000E-03 0.  1.
         22    1    1    0    0    0  0.99242938081E+01  0.29621575384E+02  0.39806989395E+01  0.31492464176E+02  0.00000000000E+00 0.  1.
</event>
<event>
 5    1  0.1096978E-009  0.9118800E+02  0.7818608E-02  0.1130116E+00
         25   -1    0    0    0    0  0.00000000000E+00  0.00000000000E+00  0.99999998245E-14  0.12500000000E+03  0.12500000000E+03 0.  0.
        -11    1    3    3    0    0  0.20416438055E+02  0.10658823924E+02  0.11664482567E+02  0.25816692741E+02  0.51100000000E-03 0.  1.
         23    2    1    0    0    0 -0.13368255766E+02 -0.68422999416E+01  0.45717928040E+02  0.76878733652E+02  0.59955678738E+02 0.  0.
         11    1    3    3    0    0 -0.33784693820E+02 -0.17501123865E+02  0.34053445473E+02  0.51062040910E+02  0.51100000000E-03 0. -1.
         22    1    1    0    0    0  0.13368255766E+02  0.68422999416E+01 -0.45717928040E+02  0.48121266348E+02  0.00000000000E+00 0. -1.
</event>
<event>
 5    1  0.1096978E-009  0.9118800E+02  0.7818608E-02  0.1130116E+00
         25   -1    0    0    0    0  0.00000000000E+00  0.00000000000E+00  0.99999998245E-14  0.12500000000E+03  0.12500000000E+03 0.  0.
        -11    1    3    3    0    0 -0.15114602400E+02  0.32141487036E+02  0.78360535053E+01  0.36372106474E+02  0.51100000000E-03 0. -1.
         23    2    1    0    0    0 -0.73958491091E+01 -0.18503620176E+02 -0.21725929095E+02  0.95519522753E+02  0.90856373954E+02 0.  0.
         11    1    3    3    0    0  0.77187532908E+01 -0.50645107212E+02 -0.29561982601E+02  0.59147416278E+02  0.51100000000E-03 0.  1.
         22    1    1    0    0    0  0.73958491091E+01  0.18503620176E+02  0.21725929095E+02  0.29480477247E+02  0.00000000000E+00 0.  1.
</event>
<event>
 5    1  0.1096978E-009  0.9118800E+02  0.7818608E-02  0.1130116E+00
         25   -1    0    0    0    0  0.00000000000E+00  0.00000000000E+00  0.99999998245E-14  0.12500000000E+03  0.12500000000E+03 0.  0.
        -11    1    3    3    0    0 -0.29620436214E+02 -0.17178509108E+02  0.31280341206E+02  0.46378132379E+02  0.51100000000E-03 0. -1.
         23    2    1    0    0    0 -0.79797471874E+01 -0.39765318360E+02  0.21151505614E+02  0.79257862980E+02  0.64726082417E+02 0.  0.
         11    1    3    3    0    0  0.21640689026E+02 -0.22586809252E+02 -0.10128835592E+02  0.32879730602E+02  0.51100000000E-03 0.  1.
         22    1    1    0    0    0  0.79797471874E+01  0.39765318360E+02 -0.21151505614E+02  0.45742137020E+02  0.00000000000E+00 0. -1.
</event>
<event>
 5    1  0.1096978E-009  0.9118800E+02  0.7818608E-02  0.1130116E+00
         25   -1    0    0    0    0  0.00000000000E+00  0.00000000000E+00  0.99999998245E-14  0.12500000000E+03  0.12500000000E+03 0.  0.
        -11    1    3    3    0    0 -0.46872037377E+02 -0.11298633552E+02  0.15320061133E+02  0.50590031443E+02  0.51100000000E-03 0.  1.
         23    2    1    0    0    0 -0.13400685660E+02 -0.26981137900E+02 -0.74015765088E+01  0.93978337998E+02  0.88710678611E+02 0.  0.
         11    1    3    3    0    0  0.33471351716E+02 -0.15682504348E+02 -0.22721637642E+02  0.43388306556E+02  0.51100000000E-03 0. -1.
         22    1    1    0    0    0  0.13400685660E+02  0.26981137900E+02  0.74015765088E+01  0.31021662002E+02  0.00000000000E+00 0. -1.
</event>
<event>
 5    1  0.1096978E-009  0.9118800E+02  0.7818608E-02  0.1130116E+00
         25   -1    0    0    0    0  0.00000000000E+00  0.00000000000E+00  0.99999998245E-14  0.12500000000E+03  0.12500000000E+03 0.  0.
        -11    1    3    3    0    0  0.22934340211E+02 -0.37860992161E+02  0.34704281026E+02  0.56247896051E+02  0.51100000000E-03 0.  1.
         23    2    1    0    0    0 -0.74296816255E+01 -0.25134954209E+02  0.12476659700E+02  0.95971856253E+02  0.91476576583E+02 0.  0.
         11    1    3    3    0    0 -0.30364021837E+02  0.12726037953E+02 -0.22227621326E+02  0.39723960202E+02  0.51100000000E-03 0. -1.
         22    1    1    0    0    0  0.74296816255E+01  0.25134954209E+02 -0.12476659700E+02  0.29028143747E+02  0.00000000000E+00 0.  1.
</event>
<event>
 5    1  0.1096978E-009  0.9118800E+02  0.7818608E-02  0.1130116E+00
         25   -1    0    0    0    0  0.00000000000E+00  0.00000000000E+00  0.99999998245E-14  0.12500000000E+03  0.12500000000E+03 0.  0.
        -11    1    3    3    0    0 -0.13264444930E+02  0.41319946485E+02  0.39038167671E+02  0.58371756974E+02  0.51100000000E-03 0.  1.
         23    2    1    0    0    0  0.92380460339E+01  0.23577508320E+02  0.17520929004E+02  0.94206764602E+02  0.89031967015E+02 0.  0.
         11    1    3    3    0    0  0.22502490963E+02 -0.17742438165E+02 -0.21517238667E+02  0.35835007628E+02  0.51100000000E-03 0. -1.
         22    1    1    0    0    0 -0.92380460339E+01 -0.23577508320E+02 -0.17520929004E+02  0.30793235398E+02  0.00000000000E+00 0.  1.
</event>
<event>
 5    1  0.1096978E-009  0.9118800E+02  0.7818608E-02  0.1130116E+00
         25   -1    0    0    0    0  0.00000000000E+00  0.00000000000E+00  0.99999998245E-14  0.12500000000E+03  0.12500000000E+03 0.  0.
        -11    1    3    3    0    0 -0.34956244529E+02 -0.61133992479E+01 -0.33515385889E+02  0.48811820018E+02  0.51100000000E-03 0.  1.
         23    2    1    0    0    0 -0.23314840058E+02 -0.83649582765E+01  0.13147063494E+02  0.96957183230E+02  0.92813230778E+02 0.  0.
         11    1    3    3    0    0  0.11641404471E+02 -0.22515590286E+01  0.46662449383E+02  0.48145363212E+02  0.51100000000E-03 0. -1.
         22    1    1    0    0    0  0.23314840058E+02  0.83649582765E+01 -0.13147063494E+02  0.28042816770E+02  0.00000000000E+00 0.  1.
</event>
<event>
 5    1  0.1096978E-009  0.9118800E+02  0.7818608E-02  0.1130116E+00
         25   -1    0    0    0    0  0.00000000000E+00  0.00000000000E+00  0.99999998245E-14  0.12500000000E+03  0.12500000000E+03 0.  0.
        -11    1    3    3    0    0 -0.33020868671E+01  0.19986162806E+02 -0.25297466204E+02  0.32408521687E+02  0.51100000000E-03 0. -1.
         23    2    1    0    0    0  0.41589079989E+02  0.11748770742E+02 -0.15490595209E+02  0.79090918891E+02  0.64402870455E+02 0.  0.
         11    1    3    3    0    0  0.44891166856E+02 -0.82373920636E+01  0.98068709943E+01  0.46682397204E+02  0.51100000000E-03 0.  1.
         22    1    1    0    0    0 -0.41589079989E+02 -0.11748770742E+02  0.15490595209E+02  0.45909081109E+02  0.00000000000E+00 0.  1.
</event>
<event>
 5    1  0.1096978E-009  0.9118800E+02  0.7818608E-02  0.1130116E+00
         25   -1    0    0    0    0  0.00000000000E+00  0.00000000000E+00  0.99999998245E-14  0.12500000000E+03  0.12500000000E+03 0.  0.
        -11    1    3    3    0    0 -0.17927286234E+02  0.56536022034E+02 -0.44711588015E+01  0.59478572952E+02  0.51100000000E-03 0. -1.
         23    2    1    0    0    0 -0.56777375304E+01  0.30173046252E+02  0.10971894301E+02  0.92395830203E+02  0.86452053480E+02 0.  0.
         11    1    3    3    0    0  0.12249548703E+02 -0.26362975782E+02  0.15443053103E+02  0.32917257251E+02  0.51100000000E-03 0.  1.
         22    1    1    0    0    0  0.56777375304E+01 -0.30173046252E+02 -0.10971894301E+02  0.32604169797E+02  0.00000000000E+00 0. -1.
</event>
<event>
 5    1  0.1096978E-009  0.9118800E+02  0.7818608E-02  0.1130116E+00
         25   -1    0    0    0    0  0.00000000000E+00  0.00000000000E+00  0.99999998245E-14  0.12500000000E+03  0.12500000000E+03 0.  0.
        -11    1    3    3    0    0 -0.37998378416E+02 -0.41703304821E+02  0.74532037703E+01  0.56908634160E+02  0.51100000000E-03 0. -1.
         23    2    1    0    0    0 -0.38978284714E+01 -0.30343694061E+02 -0.27830034149E+01  0.94280658469E+02  0.89135652897E+02 0.  0.
         11    1    3    3    0    0  0.34100549945E+02  0.11359610760E+02 -0.10236207185E+02  0.37372024309E+02  0.51100000000E-03 0.  1.
         22    1    1    0    0    0  0.38978284714E+01  0.30343694061E+02  0.27830034149E+01  0.30719341531E+02  0.00000000000E+00 0. -1.
</event>
<event>
 5    1  0.1096978E-009  0.9118800E+02  0.7818608E-02  0.1130116E+00
         25   -1    0    0    0    0  0.00000000000E+00  0.00000000000E+00  0.99999998245E-14  0.12500000000E+03  0.12500000000E+03 0.  0.
        -11    1    3    3    0    0  0.31596168563E+02 -0.89933087161E+00  0.51389824097E+02  0.60332749688E+02  0.51100000000E-03 0. -1.
         23    2    1    0    0    0  0.21122516668E+02 -0.89698505960E+01  0.19389548693E+02  0.94957138475E+02  0.90079324036E+02 0.  0.
         11    1    3    3    0    0 -0.10473651896E+02 -0.80705197244E+01 -0.32000275404E+02  0.34624388787E+02  0.51100000000E-03 0.  1.
         22    1    1    0    0    0 -0.21122516668E+02  0.89698505960E+01 -0.19389548693E+02  0.30042861525E+02  0.00000000000E+00 0. -1.
</event>
<event>
 5    1  0.1096978E-009  0.9118800E+02  0.7818608E-02  0.1130116E+00
         25   -1    0    0    0    0  0.00000000000E+00  0.00000000000E+00  0.99999998245E-14  0.12500000000E+03  0.12500000000E+03 0.  0.
        -11    1    3    3    0    0 -0.27071497912E+02  0.27172225734E+02  0.13131618791E+02  0.40541771827E+02  0.51100000000E-03 0. -1.
         23    2    1    0    0    0  0.24443445557E+02  0.19558405891E+02  0.34968167755E+01  0.93500142869E+02  0.88034287169E+02 0.  0.
         11    1    3    3    0    0  0.51514943470E+02 -0.76138198431E+01 -0.96348020159E+01  0.52958371042E+02  0.51100000000E-03 0.  1.
         22    1    1    0    0    0 -0.24443445557E+02 -0.19558405891E+02 -0.34968167755E+01  0.31499857131E+02  0.00000000000E+00 0.  1.
</event>
<event>
 5    1  0.1096978E-009  0.9118800E+02  0.7818608E-02  0.1130116E+00
         25   -1    0    0    0    0  0.00000000000E+00  0.00000000000E+00  0.99999998245E-14  0.12500000000E+03  0.12500000000E+03 0.  0.
        -11    1    3    3    0    0 -0.11698933196E+02 -0.44223311118E+02 -0.20128311466E+00  0.45745019394E+02  0.51100000000E-03 0. -1.
         23    2    1    0    0    0 -0.11293698250E+02 -0.11595723316E+01  0.26329604897E+02  0.96327010582E+02  0.91960603769E+02 0.  0.
         11    1    3    3    0    0  0.40523494619E+00  0.43063738787E+02  0.26530888011E+02  0.50581991188E+02  0.51100000000E-03 0.  1.
         22    1    1    0    0    0  0.11293698250E+02  0.11595723316E+01 -0.26329604897E+02  0.28672989418E+02  0.00000000000E+00 0.  1.
</event>
<event>
 5    1  0.1096978E-009  0.9118800E+02  0.7818608E-02  0.1130116E+00
         25   -1    0    0    0    0  0.00000000000E+00  0.00000000000E+00  0.99999998245E-14  0.12500000000E+03  0.12500000000E+03 0.  0.
        -11    1    3    3    0    0  0.42123741244E+02 -0.10680653452E+02 -0.24999568294E+02  0.50134462695E+02  0.51100000000E-03 0. -1.
         23    2    1    0    0    0  0.23220529022E+02 -0.82680024922E+01  0.16183894712E+02  0.95513201575E+02  0.90847676876E+02 0.  0.
         11    1    3    3    0    0 -0.18903212221E+02  0.24126509596E+01  0.41183463006E+02  0.45378738881E+02  0.51100000000E-03 0.  1.
         22    1    1    0    0    0 -0.23220529022E+02  0.82680024922E+01 -0.16183894712E+02  0.29486798425E+02  0.00000000000E+00 0. -1.
</event>
<event>
 5    1  0.1096978E-009  0.9118800E+02  0.7818608E-02  0.1130116E+00
         25   -1    0    0    0    0  0.00000000000E+00  0.00000000000E+00  0.99999998245E-14  0.12500000000E+03  0.12500000000E+03 0.  0.
        -11    1    3    3    0    0 -0.23938637401E+02  0.46992013076E+02 -0.29783781765E+02  0.60567163629E+02  0.51100000000E-03 0.  1.
         23    2    1    0    0    0 -0.96588408945E+01  0.28093969798E+02 -0.49559021805E+01  0.94881478907E+02  0.89974272582E+02 0.  0.
         11    1    3    3    0    0  0.14279796507E+02 -0.18898043278E+02  0.24827879585E+02  0.34314315278E+02  0.51100000000E-03 0. -1.
         22    1    1    0    0    0  0.96588408945E+01 -0.28093969798E+02  0.49559021805E+01  0.30118521093E+02  0.00000000000E+00 0.  1.
</event>
<event>
 5    1  0.1096978E-009  0.9118800E+02  0.7818608E-02  0.1130116E+00
         25   -1    0    0    0    0  0.00000000000E+00  0.00000000000E+00  0.99999998245E-14  0.12500000000E+03  0.12500000000E+03 0.  0.
        -11    1    3    3    0    0 -0.96682520468E+01  0.56808933523E+02 -0.67666347011E+01  0.58021697417E+02  0.51100000000E-03 0.  1.
         23    2    1    0    0    0 -0.24617617254E+00  0.42350053359E+02 -0.18389953835E+02  0.78828818249E+02  0.63892132241E+02 0.  0.
         11    1    3    3    0    0  0.94220758743E+01 -0.14458880164E+02 -0.11623319134E+02  0.20807120832E+02  0.51100000000E-03 0. -1.
         22    1    1    0    0    0  0.24617617254E+00 -0.42350053359E+02  0.18389953835E+02  0.46171181751E+02  0.00000000000E+00 0.  1.
</event>
<event>
 5    1  0.1096978E-009  0.9118800E+02  0.7818608E-02  0.1130116E+00
         25   -1    0    0    0    0  0.00000000000E+00  0.00000000000E+00  0.99999998245E-14  0.12500000000E+03  0.12500000000E+03 0.  0.
        -11    1    3    3    0    0 -0.33443951987E+02 -0.20714155488E+02 -0.36542406280E+02  0.53692845138E+02  0.51100000000E-03 0.  1.
         23    2    1    0    0    0 -0.27232271320E+02 -0.96036342247E+01  0.36883727094E+01  0.95889340701E+02  0.91363751977E+02 0.  0.
         11    1    3    3    0    0  0.62116806670E+01  0.11110521263E+02  0.40230778989E+02  0.42196495563E+02  0.51100000000E-03 0. -1.
         22    1    1    0    0    0  0.27232271320E+02  0.96036342247E+01 -0.36883727094E+01  0.29110659299E+02  0.00000000000E+00 0.  1.
</event>
<event>
 5    1  0.1096978E-009  0.9118800E+02  0.7818608E-02  0.1130116E+00
         25   -1    0    0    0    0  0.00000000000E+00  0.00000000000E+00  0.99999998245E-14  0.12500000000E+03  0.12500000000E+03 0.  0.
        -11    1    3    3    0    0 -0.39458735495E+02 -0.96605236982E+01  0.91115078590E+01  0.41633365234E+02  0.51100000000E-03 0. -1.
         23    2    1    0    0    0 -0.26380270504E+01  0.22131669079E+02 -0.17114160932E+02  0.96899030847E+02  0.92734878615E+02 0.  0.
         11    1    3    3    0    0  0.36820708444E+02  0.31792192777E+02 -0.26225668791E+02  0.55265665613E+02  0.51100000000E-03 0.  1.
         22    1    1    0    0    0  0.26380270504E+01 -0.22131669079E+02  0.17114160932E+02  0.28100969153E+02  0.00000000000E+00 0.  1.
</event>
<event>
 5    1  0.1096978E-009  0.9118800E+02  0.7818608E-02  0.1130116E+00
         25   -1    0    0    0    0  0.00000000000E+00  0.00000000000E+00  0.99999998245E-14  0.12500000000E+03  0.12500000000E+03 0.  0.
        -11    1    3    3    0    0 -0.21377736851E+02 -0.15116199844E+02  0.36009139417E+02  0.44521514489E+02  0.51100000000E-03 0. -1.
         23    2    1    0    0    0 -0.17389327298E+02 -0.19712227536E+02 -0.14217368704E+02  0.95115318453E+02  0.90298558202E+02 0.  0.
         11    1    3    3    0    0  0.39884095537E+01 -0.45960276916E+01 -0.50226508121E+02  0.50593803964E+02  0.51100000000E-03 0.  1.
         22    1    1    0    0    0  0.17389327298E+02  0.19712227536E+02  0.14217368704E+02  0.29884681547E+02  0.00000000000E+00 0. -1.
</event>
<event>
 5    1  0.1096978E-009  0.9118800E+02  0.7818608E-02  0.1130116E+00
         25   -1    0    0    0    0  0.00000000000E+00  0.00000000000E+00  0.99999998245E-14  0.12500000000E+03  0.12500000000E+03 0.  0.
        -11    1    3    3    0    0  0.14291020894E+02 -0.33334433664E+02  0.25152214586E+02  0.44136738039E+02  0.51100000000E-03 0. -1.
         23    2    1    0    0    0 -0.25040934980E+02 -0.17673780463E+02 -0.17565828415E+01  0.94299893750E+02  0.89162623545E+02 0.  0.
         11    1    3    3    0    0 -0.39331955874E+02  0.15660653202E+02 -0.26908797427E+02  0.50163155710E+02  0.51100000000E-03 0.  1.
         22    1    1    0    0    0  0.25040934980E+02  0.17673780463E+02  0.17565828415E+01  0.30700106250E+02  0.00000000000E+00 0.  1.
</event>
<event>
 5    1  0.1096978E-009  0.9118800E+02  0.7818608E-02  0.1130116E+00
         25   -1    0    0    0    0  0.00000000000E+00  0.00000000000E+00  0.99999998245E-14  0.12500000000E+03  0.12500000000E+03 0.  0.
        -11    1    3    3    0    0  0.39485795041E+02 -0.41830502919E+01 -0.28279531239E+02  0.48747900541E+02  0.51100000000E-03 0.  1.
         23    2    1    0    0    0  0.19128228223E+02  0.23309184080E+02  0.24704722427E+01  0.94745902583E+02  0.89785720723E+02 0.  0.
         11    1    3    3    0    0 -0.20357566818E+02  0.27492234372E+02  0.30750003482E+02  0.45998002042E+02  0.51100000000E-03 0. -1.
         22    1    1    0    0    0 -0.19128228223E+02 -0.23309184080E+02 -0.24704722427E+01  0.30254097417E+02  0.00000000000E+00 0.  1.
</event>
<event>
 5    1  0.1096978E-009  0.9118800E+02  0.7818608E-02  0.1130116E+00
         25   -1    0    0    0    0  0.00000000000E+00  0.00000000000E+00  0.99999998245E-14  0.12500000000E+03  0.12500000000E+03 0.  0.
        -11    1    3    3    0    0  0.32697465879E+02 -0.13534583496E+01 -0.73688658290E+01  0.33544840263E+02  0.51100000000E-03 0.  1.
         23    2    1    0    0    0 -0.28654665577E+02 -0.59820023281E+01  0.14056756435E+01  0.95693854993E+02  0.91095904124E+02 0.  0.
         11    1    3    3    0    0 -0.61352131456E+02 -0.46285439785E+01  0.87745414725E+01  0.62149014730E+02  0.51100000000E-03 0. -1.
         22    1    1    0    0    0  0.28654665577E+02  0.59820023281E+01 -0.14056756435E+01  0.29306145007E+02  0.00000000000E+00 0. -1.
</event>
<event>
 5    1  0.1096978E-009  0.9118800E+02  0.7818608E-02  0.1130116E+00
         25   -1    0    0    0    0  0.00000000000E+00  0.00000000000E+00  0.99999998245E-14  0.12500000000E+03  0.12500000000E+03 0.  0.
        -11    1    3    3    0    0 -0.23512728777E+01  0.45925734914E+01  0.40465580929E+02  0.40793179033E+02  0.51100000000E-03 0.  1.
         23    2    1    0    0    0  0.10535560439E+02 -0.28109776950E+02 -0.76215673017E+00  0.94971039365E+02  0.90098611760E+02 0.  0.
         11    1    3    3    0    0  0.12886833317E+02 -0.32702350442E+02 -0.41227737659E+02  0.54177860332E+02  0.51100000000E-03 0. -1.
         22    1    1    0    0    0 -0.10535560439E+02  0.28109776950E+02  0.76215673017E+00  0.30028960635E+02  0.00000000000E+00 0. -1.
</event>
<event>
 5    1  0.1096978E-009  0.9118800E+02  0.7818608E-02  0.1130116E+00
         25   -1    0    0    0    0  0.00000000000E+00  0.00000000000E+00  0.99999998245E-14  0.12500000000E+03  0.12500000000E+03 0.  0.
        -11    1    3    3    0    0  0.44409856275E+02  0.21285117666E+02  0.12396074618E+02  0.50783405110E+02  0.51100000000E-03 0.  1.
         23    2    1    0    0    0  0.91430063697E+01  0.22750787540E+02 -0.15689181456E+02  0.95890837973E+02  0.91365800457E+02 0.  0.
         11    1    3    3    0    0 -0.35266849905E+02  0.14656698739E+01 -0.28085256074E+02  0.45107432862E+02  0.51100000000E-03 0. -1.
         22    1    1    0    0    0 -0.91430063697E+01 -0.22750787540E+02  0.15689181456E+02  0.29109162027E+02  0.00000000000E+00 0.  1.
</event>
<event>
 5    1  0.1096978E-009  0.9118800E+02  0.7818608E-02  0.1130116E+00
         25   -1    0    0    0    0  0.00000000000E+00  0.00000000000E+00  0.99999998245E-14  0.12500000000E+03  0.12500000000E+03 0.  0.
        -11    1    3    3    0    0 -0.85000718081E+01  0.34128628984E+02  0.69950670874E+01  0.35860082276E+02  0.51100000000E-03 0.  1.
         23    2    1    0    0    0 -0.66006167575E+01 -0.26180645486E+02  0.98313310072E+01  0.96265884231E+02  0.91877478513E+02 0.  0.
         11    1    3    3    0    0  0.18994550506E+01 -0.60309274470E+02  0.28362639198E+01  0.60405801955E+02  0.51100000000E-03 0. -1.
         22    1    1    0    0    0  0.66006167575E+01  0.26180645486E+02 -0.98313310072E+01  0.28734115769E+02  0.00000000000E+00 0. -1.
</event>
<event>
 5    1  0.1096978E-009  0.9118800E+02  0.7818608E-02  0.1130116E+00
         25   -1    0    0    0    0  0.00000000000E+00  0.00000000000E+00  0.99999998245E-14  0.12500000000E+03  0.12500000000E+03 0.  0.
        -11    1    3    3    0    0 -0.16129504398E+02 -0.36101282944E+02 -0.39962335232E+02  0.56217895547E+02  0.51100000000E-03 0.  1.
         23    2    1    0    0    0  0.38847545137E+01 -0.31644484928E+02 -0.11907987915E+02  0.90966708649E+02  0.84360400440E+02 0.  0.
         11    1    3    3    0    0  0.20014258912E+02  0.44567980160E+01  0.28054347317E+02  0.34748813102E+02  0.51100000000E-03 0. -1.
         22    1    1    0    0    0 -0.38847545137E+01  0.31644484928E+02  0.11907987915E+02  0.34033291351E+02  0.00000000000E+00 0.  1.
</event>
<event>
 5    1  0.1096978E-009  0.9118800E+02  0.7818608E-02  0.1130116E+00
         25   -1    0    0    0    0  0.00000000000E+00  0.00000000000E+00  0.99999998245E-14  0.12500000000E+03  0.12500000000E+03 0.  0.
        -11    1    3    3    0    0 -0.27906912275E+02 -0.53000238582E+02 -0.51304547343E+01  0.60117739550E+02  0.51100000000E-03 0. -1.
         23    2    1    0    0    0 -0.40653356153E+01 -0.27685984678E+02  0.55028988014E+01  0.96481188726E+02  0.92169936430E+02 0.  0.
         11    1    3    3    0    0  0.23841576659E+02  0.25314253905E+02  0.10633353536E+02  0.36363449177E+02  0.51100000000E-03 0.  1.
         22    1    1    0    0    0  0.40653356153E+01  0.27685984678E+02 -0.55028988014E+01  0.28518811274E+02  0.00000000000E+00 0. -1.
</event>
<event>
 5    1  0.1096978E-009  0.9118800E+02  0.7818608E-02  0.1130116E+00
         25   -1    0    0    0    0  0.00000000000E+00  0.00000000000E+00  0.99999998245E-14  0.12500000000E+03  0.12500000000E+03 0.  0.
        -11    1    3    3    0    0  0.15286003451E+02  0.30177545178E+02  0.19732808547E+02  0.39162863377E+02  0.51100000000E-03 0.  1.
         23    2    1    0    0    0 -0.27721403685E+02  0.11022915257E+02 -0.83992094960E+01  0.94007620240E+02  0.88751929895E+02 0.  0.
         11    1    3    3    0    0 -0.43007407135E+02 -0.19154629921E+02 -0.28132018043E+02  0.54844756863E+02  0.51100000000E-03 0. -1.
         22    1    1    0    0    0  0.27721403685E+02 -0.11022915257E+02  0.83992094960E+01  0.30992379760E+02  0.00000000000E+00 0. -1.
</event>
<event>
 5    1  0.1096978E-009  0.9118800E+02  0.7818608E-02  0.1130116E+00
         25   -1    0    0    0    0  0.00000000000E+00  0.00000000000E+00  0.99999998245E-14  0.12500000000E+03  0.12500000000E+03 0.  0.
        -11    1    3    3    0    0 -0.12650970581E+02 -0.28931847860E+02  0.50148872683E+01  0.31972612840E+02  0.51100000000E-03 0. -1.
         23    2    1    0    0    0 -0.26997600189E+02 -0.24420697312E+02 -0.34864737227E+02  0.74593742700E+02  0.54985777024E+02 0.  0.
         11    1    3    3    0    0 -0.14346629607E+02  0.45111505483E+01 -0.39879624495E+02  0.42621129859E+02  0.51100000000E-03 0.  1.
         22    1    1    0    0    0  0.26997600189E+02  0.24420697312E+02  0.34864737227E+02  0.50406257300E+02  0.00000000000E+00 0.  1.
</event>
<event>
 5    1  0.1096978E-009  0.9118800E+02  0.7818608E-02  0.1130116E+00
         25   -1    0    0    0    0  0.00000000000E+00  0.00000000000E+00  0.99999998245E-14  0.12500000000E+03  0.12500000000E+03 0.  0.
        -11    1    3    3    0    0  0.42628429239E+02 -0.33165936649E+02  0.10370539491E+02  0.54997367417E+02  0.51100000000E-03 0.  1.
         23    2    1    0    0    0  0.26838135411E+02  0.44320516400E+01  0.10677712996E+02  0.95777711437E+02  0.91210897699E+02 0.  0.
         11    1    3    3    0    0 -0.15790293828E+02  0.37597988289E+02  0.30717350555E+00  0.40780344020E+02  0.51100000000E-03 0. -1.
         22    1    1    0    0    0 -0.26838135411E+02 -0.44320516400E+01 -0.10677712996E+02  0.29222288563E+02  0.00000000000E+00 0.  1.
</event>
<event>
 5    1  0.1096978E-009  0.9118800E+02  0.7818608E-02  0.1130116E+00
         25   -1    0    0    0    0  0.00000000000E+00  0.00000000000E+00  0.99999998245E-14  0.12500000000E+03  0.12500000000E+03 0.  0.
        -11    1    3    3    0    0  0.16548862825E+02  0.45859187387E+02 -0.85504852956E+01  0.49497886093E+02  0.51100000000E-03 0. -1.
         23    2    1    0    0    0  0.93221457481E+00  0.12151363703E+01 -0.25285685041E+02  0.99667975833E+02  0.96394989280E+02 0.  0.
         11    1    3    3    0    0 -0.15616648251E+02 -0.44644051017E+02 -0.16735199745E+02  0.50170089740E+02  0.51100000000E-03 0.  1.
         22    1    1    0    0    0 -0.93221457481E+00 -0.12151363703E+01  0.25285685041E+02  0.25332024167E+02  0.00000000000E+00 0. -1.
</event>
<event>
 5    1  0.1096978E-009  0.9118800E+02  0.7818608E-02  0.1130116E+00
         25   -1    0    0    0    0  0.00000000000E+00  0.00000000000E+00  0.99999998245E-14  0.12500000000E+03  0.12500000000E+03 0.  0.
        -11    1    3    3    0    0 -0.30551298633E+02 -0.89809622499E+01  0.12204000807E+02  0.34102451042E+02  0.51100000000E-03 0.  1.
         23    2    1    0    0    0  0.20990400670E+01  0.29098949707E+02 -0.16079387411E+02  0.91687816902E+02  0.85422211547E+02 0.  0.
         11    1    3    3    0    0  0.32650338700E+02  0.38079911957E+02 -0.28283388218E+02  0.57585365860E+02  0.51100000000E-03 0. -1.
         22    1    1    0    0    0 -0.20990400670E+01 -0.29098949707E+02  0.16079387411E+02  0.33312183098E+02  0.00000000000E+00 0. -1.
</event>
<event>
 5    1  0.1096978E-009  0.9118800E+02  0.7818608E-02  0.1130116E+00
         25   -1    0    0    0    0  0.00000000000E+00  0.00000000000E+00  0.99999998245E-14  0.12500000000E+03  0.12500000000E+03 0.  0.
        -11    1    3    3    0    0 -0.93861089848E+01 -0.33840883575E+02 -0.29097622806E+02  0.45606754941E+02  0.51100000000E-03 0.  1.
         23    2    1    0    0    0 -0.29573721954E+02 -0.10474652187E+02  0.67374497611E+01  0.92910802472E+02  0.87193466602E+02 0.  0.
         11    1    3    3    0    0 -0.20187612970E+02  0.23366231387E+02  0.35835072568E+02  0.47304047531E+02  0.51100000000E-03 0. -1.
         22    1    1    0    0    0  0.29573721954E+02  0.10474652187E+02 -0.67374497611E+01  0.32089197528E+02  0.00000000000E+00 0. -1.
</event>
<event>
 5    1  0.1096978E-009  0.9118800E+02  0.7818608E-02  0.1130116E+00
         25   -1    0    0    0    0  0.00000000000E+00  0.00000000000E+00  0.99999998245E-14  0.12500000000E+03  0.12500000000E+03 0.  0.
        -11    1    3    3    0    0 -0.53007587305E+02  0.60623534646E+01  0.32070166753E+02  0.62249915961E+02  0.51100000000E-03 0. -1.
         23    2    1    0    0    0 -0.24439783624E+02 -0.71648708897E+00  0.16700336004E+02  0.95390582579E+02  0.90678804826E+02 0.  0.
         11    1    3    3    0    0  0.28567803680E+02 -0.67788405536E+01 -0.15369830748E+02  0.33140666618E+02  0.51100000000E-03 0.  1.
         22    1    1    0    0    0  0.24439783624E+02  0.71648708897E+00 -0.16700336004E+02  0.29609417421E+02  0.00000000000E+00 0. -1.
</event>
<event>
 5    1  0.1096978E-009  0.9118800E+02  0.7818608E-02  0.1130116E+00
         25   -1    0    0    0    0  0.00000000000E+00  0.00000000000E+00  0.99999998245E-14  0.12500000000E+03  0.12500000000E+03 0.  0.
        -11    1    3    3    0    0  0.50273595099E+02 -0.60438001351E+01 -0.20125252628E+02  0.54488417833E+02  0.51100000000E-03 0. -1.
         23    2    1    0    0    0  0.12524616009E+02  0.78517979818E+01 -0.25951731892E+02  0.95133478176E+02  0.90323693148E+02 0.  0.
         11    1    3    3    0    0 -0.37748979091E+02  0.13895598117E+02 -0.58264792633E+01  0.40645060343E+02  0.51100000000E-03 0.  1.
         22    1    1    0    0    0 -0.12524616009E+02 -0.78517979818E+01  0.25951731892E+02  0.29866521824E+02  0.00000000000E+00 0. -1.
</event>
<event>
 5    1  0.1096978E-009  0.9118800E+02  0.7818608E-02  0.1130116E+00
         25   -1    0    0    0    0  0.00000000000E+00  0.00000000000E+00  0.99999998245E-14  0.12500000000E+03  0.12500000000E+03 0.  0.
        -11    1    3    3    0    0 -0.28437347220E+02  0.87943483248E+01  0.23373090317E+02  0.37846064929E+02  0.51100000000E-03 0. -1.
         23    2    1    0    0    0 -0.40651457433E+00 -0.27060433783E+02 -0.11909346651E+02  0.95432029690E+02  0.90735921346E+02 0.  0.
         11    1    3    3    0    0  0.28030832646E+02 -0.35854782108E+02 -0.35282436968E+02  0.57585964761E+02  0.51100000000E-03 0.  1.
         22    1    1    0    0    0  0.40651457433E+00  0.27060433783E+02  0.11909346651E+02  0.29567970310E+02  0.00000000000E+00 0.  1.
</event>
<event>
 5    1  0.1096978E-009  0.9118800E+02  0.7818608E-02  0.1130116E+00
         25   -1    0    0    0    0  0.00000000000E+00  0.00000000000E+00  0.99999998245E-14  0.12500000000E+03  0.12500000000E+03 0.  0.
        -11    1    3    3    0    0  0.11530546564E+02 -0.10297746676E+02  0.20737759139E+02  0.25866034583E+02  0.51100000000E-03 0.  1.
         23    2    1    0    0    0 -0.25545646434E+02 -0.22176704849E+02 -0.22748442016E+02  0.84233863270E+02  0.73712046625E+02 0.  0.
         11    1    3    3    0    0 -0.37076192998E+02 -0.11878958173E+02 -0.43486201155E+02  0.58367828687E+02  0.51100000000E-03 0. -1.
         22    1    1    0    0    0  0.25545646434E+02  0.22176704849E+02  0.22748442016E+02  0.40766136730E+02  0.00000000000E+00 0. -1.
</event>
<event>
 5    1  0.1096978E-009  0.9118800E+02  0.7818608E-02  0.1130116E+00
         25   -1    0    0    0    0  0.00000000000E+00  0.00000000000E+00  0.99999998245E-14  0.12500000000E+03  0.12500000000E+03 0.  0.
        -11    1    3    3    0    0 -0.71306120660E+01 -0.16225726847E+01 -0.60580934240E+02  0.61020717500E+02  0.51100000000E-03 0.  1.
         23    2    1    0    0    0 -0.13761397195E+02 -0.19884516194E+01 -0.39379236718E+02  0.83238124119E+02  0.72003687612E+02 0.  0.
         11    1    3    3    0    0 -0.66307851286E+01 -0.36587893466E+00  0.21201697521E+02  0.22217406619E+02  0.51100000000E-03 0. -1.
         22    1    1    0    0    0  0.13761397195E+02  0.19884516194E+01  0.39379236718E+02  0.41761875881E+02  0.00000000000E+00 0.  1.
</event>
<event>
 5    1  0.1096978E-009  0.9118800E+02  0.7818608E-02  0.1130116E+00
         25   -1    0    0    0    0  0.00000000000E+00  0.00000000000E+00  0.99999998245E-14  0.12500000000E+03  0.12500000000E+03 0.  0.
        -11    1    3    3    0    0 -0.41421970641E+01  0.74279845002E+01  0.33295837513E+02  0.34364888276E+02  0.51100000000E-03 0.  1.
         23    2    1    0    0    0 -0.13663335188E+02  0.55715675093E+01 -0.26352915373E+02  0.94797264336E+02  0.89857198287E+02 0.  0.
         11    1    3    3    0    0 -0.95211381239E+01 -0.18564169910E+01 -0.59648752885E+02  0.60432376060E+02  0.51100000000E-03 0. -1.
         22    1    1    0    0    0  0.13663335188E+02 -0.55715675093E+01  0.26352915373E+02  0.30202735664E+02  0.00000000000E+00 0. -1.
</event>
<event>
 5    1  0.1096978E-009  0.9118800E+02  0.7818608E-02  0.1130116E+00
         25   -1    0    0    0    0  0.00000000000E+00  0.00000000000E+00  0.99999998245E-14  0.12500000000E+03  0.12500000000E+03 0.  0.
        -11    1    3    3    0    0  0.18840894818E+02  0.23503175619E+02  0.22955666507E+02  0.37872697379E+02  0.51100000000E-03 0. -1.
         23    2    1    0    0    0  0.11317727268E+01  0.54409613644E+01 -0.28900786385E+02  0.95569736261E+02  0.90925431345E+02 0.  0.
         11    1    3    3    0    0 -0.17709122091E+02 -0.18062214254E+02 -0.51856452892E+02  0.57697038882E+02  0.51100000000E-03 0.  1.
         22    1    1    0    0    0 -0.11317727268E+01 -0.54409613644E+01  0.28900786385E+02  0.29430263739E+02  0.00000000000E+00 0.  1.
</event>
<event>
 5    1  0.1096978E-009  0.9118800E+02  0.7818608E-02  0.1130116E+00
         25   -1    0    0    0    0  0.00000000000E+00  0.00000000000E+00  0.99999998245E-14  0.12500000000E+03  0.12500000000E+03 0.  0.
        -11    1    3    3    0    0 -0.49569131449E+02 -0.22002648247E+02  0.16612915504E+02  0.56720404479E+02  0.51100000000E-03 0. -1.
         23    2    1    0    0    0 -0.23800491558E+02 -0.13921474776E+02 -0.10971928313E+02  0.95324183764E+02  0.90587228355E+02 0.  0.
         11    1    3    3    0    0  0.25768639890E+02  0.80811734715E+01 -0.27584843816E+02  0.38603779285E+02  0.51100000000E-03 0.  1.
         22    1    1    0    0    0  0.23800491558E+02  0.13921474776E+02  0.10971928313E+02  0.29675816236E+02  0.00000000000E+00 0. -1.
</event>
<event>
 5    1  0.1096978E-009  0.9118800E+02  0.7818608E-02  0.1130116E+00
         25   -1    0    0    0    0  0.00000000000E+00  0.00000000000E+00  0.99999998245E-14  0.12500000000E+03  0.12500000000E+03 0.  0.
        -11    1    3    3    0    0 -0.19746379477E+02  0.21283880891E+02 -0.38552595556E+02  0.48262052511E+02  0.51100000000E-03 0.  1.
         23    2    1    0    0    0 -0.30380826358E+02  0.19086993436E+01  0.20499236876E+01  0.94490330541E+02  0.89429204599E+02 0.  0.
         11    1    3    3    0    0 -0.10634446881E+02 -0.19375181548E+02  0.40602519243E+02  0.46228278030E+02  0.51100000000E-03 0. -1.
         22    1    1    0    0    0  0.30380826358E+02 -0.19086993436E+01 -0.20499236876E+01  0.30509669459E+02  0.00000000000E+00 0. -1.
</event>
<event>
 5    1  0.1096978E-009  0.9118800E+02  0.7818608E-02  0.1130116E+00
         25   -1    0    0    0    0  0.00000000000E+00  0.00000000000E+00  0.99999998245E-14  0.12500000000E+03  0.12500000000E+03 0.  0.
        -11    1    3    3    0    0 -0.15937226345E+02 -0.52355677742E+02  0.85566002584E+01  0.55392486708E+02  0.51100000000E-03 0. -1.
         23    2    1    0    0    0  0.97495219101E+01 -0.24714771101E+02 -0.89165388847E+01  0.96975408054E+02  0.92837772558E+02 0.  0.
         11    1    3    3    0    0  0.25686748255E+02  0.27640906642E+02 -0.17473139143E+02  0.41582921346E+02  0.51100000000E-03 0.  1.
         22    1    1    0    0    0 -0.97495219101E+01  0.24714771101E+02  0.89165388847E+01  0.28024591946E+02  0.00000000000E+00 0. -1.
</event>
<event>
 5    1  0.1096978E-009  0.9118800E+02  0.7818608E-02  0.1130116E+00
         25   -1    0    0    0    0  0.00000000000E+00  0.00000000000E+00  0.99999998245E-14  0.12500000000E+03  0.12500000000E+03 0.  0.
        -11    1    3    3    0    0 -0.52579163878E+02 -0.78830687337E+01 -0.10175103998E+02  0.54131728112E+02  0.51100000000E-03 0. -1.
         23    2    1    0    0    0 -0.22543861467E+02 -0.15502692853E+02  0.14766761070E+02  0.93909544744E+02  0.88613690737E+02 0.  0.
         11    1    3    3    0    0  0.30035302411E+02 -0.76196241190E+01  0.24941865068E+02  0.39777816632E+02  0.51100000000E-03 0.  1.
         22    1    1    0    0    0  0.22543861467E+02  0.15502692853E+02 -0.14766761070E+02  0.31090455256E+02  0.00000000000E+00 0. -1.
</event>
<event>
 5    1  0.1096978E-009  0.9118800E+02  0.7818608E-02  0.1130116E+00
         25   -1    0    0    0    0  0.00000000000E+00  0.00000000000E+00  0.99999998245E-14  0.12500000000E+03  0.12500000000E+03 0.  0.
        -11    1    3    3    0    0 -0.47214507433E+02  0.17244413208E+02  0.20963511995E+01  0.50308788373E+02  0.51100000000E-03 0. -1.
         23    2    1    0    0    0 -0.20365155953E+02 -0.17858107725E+02 -0.99983878414E+01  0.96127533047E+02  0.91689057481E+02 0.  0.
         11    1    3    3    0    0  0.26849351480E+02 -0.35102520933E+02 -0.12094739041E+02  0.45818744674E+02  0.51100000000E-03 0.  1.
         22    1    1    0    0    0  0.20365155953E+02  0.17858107725E+02  0.99983878414E+01  0.28872466953E+02  0.00000000000E+00 0. -1.
</event>
<event>
 5    1  0.1096978E-009  0.9118800E+02  0.7818608E-02  0.1130116E+00
         25   -1    0    0    0    0  0.00000000000E+00  0.00000000000E+00  0.99999998245E-14  0.12500000000E+03  0.12500000000E+03 0.  0.
        -11    1    3    3    0    0  0.29959267959E+02 -0.23563956487E+02 -0.32920408607E+02  0.50364383100E+02  0.51100000000E-03 0. -1.
         23    2    1    0    0    0  0.10275103306E+02  0.17453290072E+02 -0.16975264231E+02  0.98573598845E+02  0.94965255285E+02 0.  0.
         11    1    3    3    0    0 -0.19684164653E+02  0.41017246559E+02  0.15945144375E+02  0.48209215745E+02  0.51100000000E-03 0.  1.
         22    1    1    0    0    0 -0.10275103306E+02 -0.17453290072E+02  0.16975264231E+02  0.26426401155E+02  0.00000000000E+00 0.  1.
</event>
<event>
 5    1  0.1096978E-009  0.9118800E+02  0.7818608E-02  0.1130116E+00
         25   -1    0    0    0    0  0.00000000000E+00  0.00000000000E+00  0.99999998245E-14  0.12500000000E+03  0.12500000000E+03 0.  0.
        -11    1    3    3    0    0 -0.22500423961E+02 -0.13423540778E+02  0.40677144727E+01  0.26514275904E+02  0.51100000000E-03 0.  1.
         23    2    1    0    0    0  0.11333586409E+02  0.11028710612E+01 -0.39693645790E+02  0.83705302743E+02  0.72810203170E+02 0.  0.
         11    1    3    3    0    0  0.33834010369E+02  0.14526411839E+02 -0.43761360263E+02  0.57191026839E+02  0.51100000000E-03 0. -1.
         22    1    1    0    0    0 -0.11333586409E+02 -0.11028710612E+01  0.39693645790E+02  0.41294697257E+02  0.00000000000E+00 0. -1.
</event>
<event>
 5    1  0.1096978E-009  0.9118800E+02  0.7818608E-02  0.1130116E+00
         25   -1    0    0    0    0  0.00000000000E+00  0.00000000000E+00  0.99999998245E-14  0.12500000000E+03  0.12500000000E+03 0.  0.
        -11    1    3    3    0    0 -0.39492738593E+02  0.14610424128E+02 -0.21263571099E+02  0.47172877280E+02  0.51100000000E-03 0.  1.
         23    2    1    0    0    0  0.15459739190E+01 -0.20599799460E+01 -0.32118107553E+02  0.92778789819E+02  0.87004008269E+02 0.  0.
         11    1    3    3    0    0  0.41038712512E+02 -0.16670404074E+02 -0.10854536454E+02  0.45605912539E+02  0.51100000000E-03 0. -1.
         22    1    1    0    0    0 -0.15459739190E+01  0.20599799460E+01  0.32118107553E+02  0.32221210181E+02  0.00000000000E+00 0. -1.
</event>
<event>
 5    1  0.1096978E-009  0.9118800E+02  0.7818608E-02  0.1130116E+00
         25   -1    0    0    0    0  0.00000000000E+00  0.00000000000E+00  0.99999998245E-14  0.12500000000E+03  0.12500000000E+03 0.  0.
        -11    1    3    3    0    0 -0.97715677157E+00  0.56924712152E+02  0.71027899381E+01  0.57374448268E+02  0.51100000000E-03 0.  1.
         23    2    1    0    0    0  0.15036506196E+02  0.28526680254E+02 -0.54237393567E+01  0.92300077163E+02  0.86313494257E+02 0.  0.
         11    1    3    3    0    0  0.16013662968E+02 -0.28398031897E+02 -0.12526529295E+02  0.34925628895E+02  0.51100000000E-03 0. -1.
         22    1    1    0    0    0 -0.15036506196E+02 -0.28526680254E+02  0.54237393567E+01  0.32699922837E+02  0.00000000000E+00 0.  1.
</event>
<event>
 5    1  0.1096978E-009  0.9118800E+02  0.7818608E-02  0.1130116E+00
         25   -1    0    0    0    0  0.00000000000E+00  0.00000000000E+00  0.99999998245E-14  0.12500000000E+03  0.12500000000E+03 0.  0.
        -11    1    3    3    0    0 -0.18673363447E+02 -0.44381099378E+02 -0.23302375431E+02  0.53491842233E+02  0.51100000000E-03 0. -1.
         23    2    1    0    0    0  0.10149001757E+01 -0.74948381112E+01 -0.28397194447E+02  0.95612872322E+02  0.90984713445E+02 0.  0.
         11    1    3    3    0    0  0.19688263623E+02  0.36886261267E+02 -0.50948190162E+01  0.42121030090E+02  0.51100000000E-03 0.  1.
         22    1    1    0    0    0 -0.10149001757E+01  0.74948381112E+01  0.28397194447E+02  0.29387127678E+02  0.00000000000E+00 0. -1.
</event>
<event>
 5    1  0.1096978E-009  0.9118800E+02  0.7818608E-02  0.1130116E+00
         25   -1    0    0    0    0  0.00000000000E+00  0.00000000000E+00  0.99999998245E-14  0.12500000000E+03  0.12500000000E+03 0.  0.
        -11    1    3    3    0    0 -0.22979466176E+02  0.98108975833E+01  0.38372962688E+02  0.45790761545E+02  0.51100000000E-03 0. -1.
         23    2    1    0    0    0 -0.41661250625E+01  0.28936903498E+02 -0.35364251538E+01  0.95551616598E+02  0.90900517873E+02 0.  0.
         11    1    3    3    0    0  0.18813341113E+02  0.19126005915E+02 -0.41909387842E+02  0.49760855054E+02  0.51100000000E-03 0.  1.
         22    1    1    0    0    0  0.41661250625E+01 -0.28936903498E+02  0.35364251538E+01  0.29448383402E+02  0.00000000000E+00 0. -1.
</event>
<event>
 5    1  0.1096978E-009  0.9118800E+02  0.7818608E-02  0.1130116E+00
         25   -1    0    0    0    0  0.00000000000E+00  0.00000000000E+00  0.99999998245E-14  0.12500000000E+03  0.12500000000E+03 0.  0.
        -11    1    3    3    0    0  0.41026811368E+02 -0.54272388671E+01 -0.16832822323E+02  0.44676594323E+02  0.51100000000E-03 0.  1.
         23    2    1    0    0    0  0.11468416093E+02  0.98178538359E+01  0.23571474033E+02  0.97008408232E+02  0.92882194515E+02 0.  0.
         11    1    3    3    0    0 -0.29558395274E+02  0.15245092703E+02  0.40404296356E+02  0.52331813909E+02  0.51100000000E-03 0. -1.
         22    1    1    0    0    0 -0.11468416093E+02 -0.98178538359E+01 -0.23571474033E+02  0.27991591768E+02  0.00000000000E+00 0. -1.
</event>
<event>
 5    1  0.1096978E-009  0.9118800E+02  0.7818608E-02  0.1130116E+00
         25   -1    0    0    0    0  0.00000000000E+00  0.00000000000E+00  0.99999998245E-14  0.12500000000E+03  0.12500000000E+03 0.  0.
        -11    1    3    3    0    0  0.58117169198E+00  0.49171795049E+02 -0.68746681353E+01  0.49653441483E+02  0.51100000000E-03 0. -1.
         23    2    1    0    0    0  0.23107002444E+02  0.26114110553E+02  0.13299174954E+02  0.87680455705E+02  0.79341753991E+02 0.  0.
         11    1    3    3    0    0  0.22525830752E+02 -0.23057684496E+02  0.20173843089E+02  0.38027014222E+02  0.51100000000E-03 0.  1.
         22    1    1    0    0    0 -0.23107002444E+02 -0.26114110553E+02 -0.13299174954E+02  0.37319544295E+02  0.00000000000E+00 0. -1.
</event>
<event>
 5    1  0.1096978E-009  0.9118800E+02  0.7818608E-02  0.1130116E+00
         25   -1    0    0    0    0  0.00000000000E+00  0.00000000000E+00  0.99999998245E-14  0.12500000000E+03  0.12500000000E+03 0.  0.
        -11    1    3    3    0    0 -0.18016999331E+02  0.36498704738E+02  0.77642311342E+01  0.41437314075E+02  0.51100000000E-03 0. -1.
         23    2    1    0    0    0  0.23777341549E+02  0.83188871584E+01 -0.13815807962E+02  0.96269486529E+02  0.91882379335E+02 0.  0.
         11    1    3    3    0    0  0.41794340879E+02 -0.28179817579E+02 -0.21580039096E+02  0.54832172454E+02  0.51100000000E-03 0.  1.
         22    1    1    0    0    0 -0.23777341549E+02 -0.83188871584E+01  0.13815807962E+02  0.28730513471E+02  0.00000000000E+00 0.  1.
</event>
<event>
 5    1  0.1096978E-009  0.9118800E+02  0.7818608E-02  0.1130116E+00
         25   -1    0    0    0    0  0.00000000000E+00  0.00000000000E+00  0.99999998245E-14  0.12500000000E+03  0.12500000000E+03 0.  0.
        -11    1    3    3    0    0 -0.17692842224E+02  0.23233127922E+02 -0.22400821107E+02  0.36805049729E+02  0.51100000000E-03 0. -1.
         23    2    1    0    0    0 -0.58046181853E+01 -0.27050612438E+02  0.72783088999E+01  0.96392256188E+02  0.92049247944E+02 0.  0.
         11    1    3    3    0    0  0.11888224039E+02 -0.50283740360E+02  0.29679130007E+02  0.59587206459E+02  0.51100000000E-03 0.  1.
         22    1    1    0    0    0  0.58046181853E+01  0.27050612438E+02 -0.72783088999E+01  0.28607743812E+02  0.00000000000E+00 0.  1.
</event>
<event>
 5    1  0.1096978E-009  0.9118800E+02  0.7818608E-02  0.1130116E+00
         25   -1    0    0    0    0  0.00000000000E+00  0.00000000000E+00  0.99999998245E-14  0.12500000000E+03  0.12500000000E+03 0.  0.
        -11    1    3    3    0    0 -0.36298075631E+02  0.24909479384E+01 -0.23073459249E+02  0.43082939061E+02  0.51100000000E-03 0. -1.
         23    2    1    0    0    0 -0.11825827573E+02 -0.18311827168E+02  0.19046923450E+02  0.96052487069E+02  0.91586689902E+02 0.  0.
         11    1    3    3    0    0  0.24472248059E+02 -0.20802775107E+02  0.42120382699E+02  0.52969548008E+02  0.51100000000E-03 0.  1.
         22    1    1    0    0    0  0.11825827573E+02  0.18311827168E+02 -0.19046923450E+02  0.28947512931E+02  0.00000000000E+00 0.  1.
</event>
<event>
 5    1  0.1096978E-009  0.9118800E+02  0.7818608E-02  0.1130116E+00
         25   -1    0    0    0    0  0.00000000000E+00  0.00000000000E+00  0.99999998245E-14  0.12500000000E+03  0.12500000000E+03 0.  0.
        -11    1    3    3    0    0 -0.10032473251E+02 -0.15021350652E+02 -0.36078689697E+02  0.40348027776E+02  0.51100000000E-03 0. -1.
         23    2    1    0    0    0  0.71365920120E+01  0.27150412521E+02 -0.27142752827E+01  0.96796398529E+02  0.92596434231E+02 0.  0.
         11    1    3    3    0    0  0.17169065263E+02  0.42171763173E+02  0.33364414414E+02  0.56448370753E+02  0.51100000000E-03 0.  1.
         22    1    1    0    0    0 -0.71365920120E+01 -0.27150412521E+02  0.27142752827E+01  0.28203601471E+02  0.00000000000E+00 0.  1.
</event>
<event>
 5    1  0.1096978E-009  0.9118800E+02  0.7818608E-02  0.1130116E+00
         25   -1    0    0    0    0  0.00000000000E+00  0.00000000000E+00  0.99999998245E-14  0.12500000000E+03  0.12500000000E+03 0.  0.
        -11    1    3    3    0    0 -0.78009552451E+01  0.50448443105E+00 -0.14609088069E+02  0.16569093570E+02  0.51100000000E-03 0.  1.
         23    2    1    0    0    0  0.39572802239E+02  0.29885302863E+02  0.37737667345E+01  0.75266919262E+02  0.56495396410E+02 0.  0.
         11    1    3    3    0    0  0.47373757485E+02  0.29380818432E+02  0.18382854803E+02  0.58697825692E+02  0.51100000000E-03 0. -1.
         22    1    1    0    0    0 -0.39572802239E+02 -0.29885302863E+02 -0.37737667345E+01  0.49733080738E+02  0.00000000000E+00 0. -1.
</event>
<event>
 5    1  0.1096978E-009  0.9118800E+02  0.7818608E-02  0.1130116E+00
         25   -1    0    0    0    0  0.00000000000E+00  0.00000000000E+00  0.99999998245E-14  0.12500000000E+03  0.12500000000E+03 0.  0.
        -11    1    3    3    0    0  0.43847679811E+01 -0.24550342106E+02 -0.56552836872E+02  0.61807514481E+02  0.51100000000E-03 0.  1.
         23    2    1    0    0    0  0.44862236639E+01 -0.17312608423E+02 -0.24504204861E+02  0.94663410392E+02  0.89670801256E+02 0.  0.
         11    1    3    3    0    0  0.10145568280E+00  0.72377336832E+01  0.32048632011E+02  0.32855895911E+02  0.51100000000E-03 0. -1.
         22    1    1    0    0    0 -0.44862236639E+01  0.17312608423E+02  0.24504204861E+02  0.30336589608E+02  0.00000000000E+00 0.  1.
</event>
<event>
 5    1  0.1096978E-009  0.9118800E+02  0.7818608E-02  0.1130116E+00
         25   -1    0    0    0    0  0.00000000000E+00  0.00000000000E+00  0.99999998245E-14  0.12500000000E+03  0.12500000000E+03 0.  0.
        -11    1    3    3    0    0  0.44732562038E+02  0.16196745037E+02  0.33215708449E+02  0.58022581331E+02  0.51100000000E-03 0.  1.
         23    2    1    0    0    0  0.28560160948E+02  0.25639260852E+02  0.28089587877E+02  0.77438677084E+02  0.61111940494E+02 0.  0.
         11    1    3    3    0    0 -0.16172401090E+02  0.94425158149E+01 -0.51261205714E+01  0.19416095753E+02  0.51100000000E-03 0. -1.
         22    1    1    0    0    0 -0.28560160948E+02 -0.25639260852E+02 -0.28089587877E+02  0.47561322916E+02  0.00000000000E+00 0.  1.
</event>
<event>
 5    1  0.1096978E-009  0.9118800E+02  0.7818608E-02  0.1130116E+00
         25   -1    0    0    0    0  0.00000000000E+00  0.00000000000E+00  0.99999998245E-14  0.12500000000E+03  0.12500000000E+03 0.  0.
        -11    1    3    3    0    0  0.20862603701E+02  0.29077764574E+02  0.29335345235E+02  0.46274475752E+02  0.51100000000E-03 0. -1.
         23    2    1    0    0    0 -0.81960690525E+01 -0.11986928434E+02  0.24114543077E+02  0.96850875875E+02  0.92669946416E+02 0.  0.
         11    1    3    3    0    0 -0.29058672753E+02 -0.41064693008E+02 -0.52208021584E+01  0.50576400123E+02  0.51100000000E-03 0.  1.
         22    1    1    0    0    0  0.81960690525E+01  0.11986928434E+02 -0.24114543077E+02  0.28149124125E+02  0.00000000000E+00 0. -1.
</event>
<event>
 5    1  0.1096978E-009  0.9118800E+02  0.7818608E-02  0.1130116E+00
         25   -1    0    0    0    0  0.00000000000E+00  0.00000000000E+00  0.99999998245E-14  0.12500000000E+03  0.12500000000E+03 0.  0.
        -11    1    3    3    0    0 -0.24898597345E+02  0.16811787611E+02 -0.20464189507E+02  0.36350507629E+02  0.51100000000E-03 0. -1.
         23    2    1    0    0    0  0.14849133298E+02 -0.21296280551E+02  0.73173729085E+01  0.98026452379E+02  0.94242310533E+02 0.  0.
         11    1    3    3    0    0  0.39747730643E+02 -0.38108068161E+02  0.27781562416E+02  0.61675944750E+02  0.51100000000E-03 0.  1.
         22    1    1    0    0    0 -0.14849133298E+02  0.21296280551E+02 -0.73173729085E+01  0.26973547621E+02  0.00000000000E+00 0.  1.
</event>
<event>
 5    1  0.1096978E-009  0.9118800E+02  0.7818608E-02  0.1130116E+00
         25   -1    0    0    0    0  0.00000000000E+00  0.00000000000E+00  0.99999998245E-14  0.12500000000E+03  0.12500000000E+03 0.  0.
        -11    1    3    3    0    0 -0.21822295137E+02  0.13436959025E+02 -0.26083493045E+02  0.36566556340E+02  0.51100000000E-03 0.  1.
         23    2    1    0    0    0  0.26311357169E+02 -0.93511553871E+01  0.24226747456E+01  0.96971425722E+02  0.92832410453E+02 0.  0.
         11    1    3    3    0    0  0.48133652305E+02 -0.22788114412E+02  0.28506167791E+02  0.60404869382E+02  0.51100000000E-03 0. -1.
         22    1    1    0    0    0 -0.26311357169E+02  0.93511553871E+01 -0.24226747456E+01  0.28028574278E+02  0.00000000000E+00 0. -1.
</event>
<event>
 5    1  0.1096978E-009  0.9118800E+02  0.7818608E-02  0.1130116E+00
         25   -1    0    0    0    0  0.00000000000E+00  0.00000000000E+00  0.99999998245E-14  0.12500000000E+03  0.12500000000E+03 0.  0.
        -11    1    3    3    0    0 -0.14453959611E+01 -0.84531179022E+01 -0.43125532099E+02  0.43969943039E+02  0.51100000000E-03 0.  1.
         23    2    1    0    0    0 -0.14259755710E+02  0.24695829778E+02 -0.50775866620E+01  0.96034390605E+02  0.91561988025E+02 0.  0.
         11    1    3    3    0    0 -0.12814359749E+02  0.33148947680E+02  0.38047945437E+02  0.52064447566E+02  0.51100000000E-03 0. -1.
         22    1    1    0    0    0  0.14259755710E+02 -0.24695829778E+02  0.50775866620E+01  0.28965609395E+02  0.00000000000E+00 0. -1.
</event>
<event>
 5    1  0.1096978E-009  0.9118800E+02  0.7818608E-02  0.1130116E+00
         25   -1    0    0    0    0  0.00000000000E+00  0.00000000000E+00  0.99999998245E-14  0.12500000000E+03  0.12500000000E+03 0.  0.
        -11    1    3    3    0    0  0.38837522645E+02 -0.39636319157E+02  0.14550286519E+02  0.57368125293E+02  0.51100000000E-03 0. -1.
         23    2    1    0    0    0  0.81122496089E+01 -0.17975448435E+02  0.21745684404E+02  0.95643567480E+02  0.91026874438E+02 0.  0.
         11    1    3    3    0    0 -0.30725273037E+02  0.21660870722E+02  0.71953978842E+01  0.38275442187E+02  0.51100000000E-03 0.  1.
         22    1    1    0    0    0 -0.81122496089E+01  0.17975448435E+02 -0.21745684404E+02  0.29356432520E+02  0.00000000000E+00 0. -1.
</event>
<event>
 5    1  0.1096978E-009  0.9118800E+02  0.7818608E-02  0.1130116E+00
         25   -1    0    0    0    0  0.00000000000E+00  0.00000000000E+00  0.99999998245E-14  0.12500000000E+03  0.12500000000E+03 0.  0.
        -11    1    3    3    0    0 -0.56144513358E+02  0.24273814446E+02 -0.25380692087E+00  0.61167710977E+02  0.51100000000E-03 0.  1.
         23    2    1    0    0    0 -0.20135567480E+02  0.17996325092E+02  0.28129898320E+01  0.97848173057E+02  0.94005549114E+02 0.  0.
         11    1    3    3    0    0  0.36008945878E+02 -0.62774893540E+01  0.30667967529E+01  0.36680462080E+02  0.51100000000E-03 0. -1.
         22    1    1    0    0    0  0.20135567480E+02 -0.17996325092E+02 -0.28129898320E+01  0.27151826943E+02  0.00000000000E+00 0.  1.
</event>
<event>
 5    1  0.1096978E-009  0.9118800E+02  0.7818608E-02  0.1130116E+00
         25   -1    0    0    0    0  0.00000000000E+00  0.00000000000E+00  0.99999998245E-14  0.12500000000E+03  0.12500000000E+03 0.  0.
        -11    1    3    3    0    0 -0.23097283769E+02  0.13558293484E+02  0.16511790984E+02  0.31463488069E+02  0.51100000000E-03 0.  1.
         23    2    1    0    0    0  0.25847049655E+02 -0.14998777498E+02 -0.92594614694E+01  0.93714685091E+02  0.88338390707E+02 0.  0.
         11    1    3    3    0    0  0.48944333424E+02 -0.28557070981E+02 -0.25771252453E+02  0.62251197022E+02  0.51100000000E-03 0. -1.
         22    1    1    0    0    0 -0.25847049655E+02  0.14998777498E+02  0.92594614694E+01  0.31285314909E+02  0.00000000000E+00 0. -1.
</event>
<event>
 5    1  0.1096978E-009  0.9118800E+02  0.7818608E-02  0.1130116E+00
         25   -1    0    0    0    0  0.00000000000E+00  0.00000000000E+00  0.99999998245E-14  0.12500000000E+03  0.12500000000E+03 0.  0.
        -11    1    3    3    0    0 -0.38487652418E+02 -0.37270561161E+02 -0.17501045476E+02  0.56362050272E+02  0.51100000000E-03 0. -1.
         23    2    1    0    0    0 -0.22278676104E+02 -0.18153699547E+02  0.10920872115E+02  0.94256518350E+02  0.89101793402E+02 0.  0.
         11    1    3    3    0    0  0.16208976313E+02  0.19116861614E+02  0.28421917591E+02  0.37894468078E+02  0.51100000000E-03 0.  1.
         22    1    1    0    0    0  0.22278676104E+02  0.18153699547E+02 -0.10920872115E+02  0.30743481650E+02  0.00000000000E+00 0. -1.
</event>
<event>
 5    1  0.1096978E-009  0.9118800E+02  0.7818608E-02  0.1130116E+00
         25   -1    0    0    0    0  0.00000000000E+00  0.00000000000E+00  0.99999998245E-14  0.12500000000E+03  0.12500000000E+03 0.  0.
        -11    1    3    3    0    0  0.42607076163E+02 -0.14798132136E+01 -0.23476702480E+02  0.48669377908E+02  0.51100000000E-03 0. -1.
         23    2    1    0    0    0  0.20873326934E+02 -0.60001081972E+01  0.18705725803E+02  0.96336412411E+02  0.91973382578E+02 0.  0.
         11    1    3    3    0    0 -0.21733749229E+02 -0.45202949836E+01  0.42182428282E+02  0.47667034504E+02  0.51100000000E-03 0.  1.
         22    1    1    0    0    0 -0.20873326934E+02  0.60001081972E+01 -0.18705725803E+02  0.28663587589E+02  0.00000000000E+00 0. -1.
</event>
<event>
 5    1  0.1096978E-009  0.9118800E+02  0.7818608E-02  0.1130116E+00
         25   -1    0    0    0    0  0.00000000000E+00  0.00000000000E+00  0.99999998245E-14  0.12500000000E+03  0.12500000000E+03 0.  0.
        -11    1    3    3    0    0 -0.24695656030E+02  0.28733429950E+02  0.29156455219E+02  0.47807784980E+02  0.51100000000E-03 0.  1.
         23    2    1    0    0    0 -0.63250421260E+01  0.23930284622E+02 -0.15127720971E+02  0.95991163041E+02  0.91502954926E+02 0.  0.
         11    1    3    3    0    0  0.18370613904E+02 -0.48031453288E+01 -0.44284176190E+02  0.48183378061E+02  0.51100000000E-03 0. -1.
         22    1    1    0    0    0  0.63250421260E+01 -0.23930284622E+02  0.15127720971E+02  0.29008836959E+02  0.00000000000E+00 0. -1.
</event>
<event>
 5    1  0.1096978E-009  0.9118800E+02  0.7818608E-02  0.1130116E+00
         25   -1    0    0    0    0  0.00000000000E+00  0.00000000000E+00  0.99999998245E-14  0.12500000000E+03  0.12500000000E+03 0.  0.
        -11    1    3    3    0    0 -0.32953146485E+02  0.35503540654E+02 -0.36829829928E+01  0.48579580343E+02  0.51100000000E-03 0.  1.
         23    2    1    0    0    0  0.17212419759E+01  0.17138253088E+02  0.23172100507E+02  0.96127372222E+02  0.91688838228E+02 0.  0.
         11    1    3    3    0    0  0.34674388461E+02 -0.18365287566E+02  0.26855083500E+02  0.47547791880E+02  0.51100000000E-03 0. -1.
         22    1    1    0    0    0 -0.17212419759E+01 -0.17138253088E+02 -0.23172100507E+02  0.28872627778E+02  0.00000000000E+00 0.  1.
</event>
<event>
 5    1  0.1096978E-009  0.9118800E+02  0.7818608E-02  0.1130116E+00
         25   -1    0    0    0    0  0.00000000000E+00  0.00000000000E+00  0.99999998245E-14  0.12500000000E+03  0.12500000000E+03 0.  0.
        -11    1    3    3    0    0 -0.10537438451E+02  0.60107291372E+02  0.44884509697E+01  0.61188808434E+02  0.51100000000E-03 0.  1.
         23    2    1    0    0    0 -0.29077504979E+01  0.26043617272E+02 -0.68896338799E+01  0.97904021173E+02  0.94079781533E+02 0.  0.
         11    1    3    3    0    0  0.76296879530E+01 -0.34063674099E+02 -0.11378084850E+02  0.36715212739E+02  0.51100000000E-03 0. -1.
         22    1    1    0    0    0  0.29077504979E+01 -0.26043617272E+02  0.68896338799E+01  0.27095978827E+02  0.00000000000E+00 0.  1.
</event>
<event>
 5    1  0.1096978E-009  0.9118800E+02  0.7818608E-02  0.1130116E+00
         25   -1    0    0    0    0  0.00000000000E+00  0.00000000000E+00  0.99999998245E-14  0.12500000000E+03  0.12500000000E+03 0.  0.
        -11    1    3    3    0    0  0.99100153037E+01 -0.43534901951E+02 -0.12891431543E+02  0.46472412233E+02  0.51100000000E-03 0.  1.
         23    2    1    0    0    0  0.16096704721E+02 -0.11811153053E+02  0.22847099880E+02  0.94658655069E+02  0.89664172149E+02 0.  0.
         11    1    3    3    0    0  0.61866894171E+01  0.31723748898E+02  0.35738531423E+02  0.48186242836E+02  0.51100000000E-03 0. -1.
         22    1    1    0    0    0 -0.16096704721E+02  0.11811153053E+02 -0.22847099880E+02  0.30341344931E+02  0.00000000000E+00 0. -1.
</event>
<event>
 5    1  0.1096978E-009  0.9118800E+02  0.7818608E-02  0.1130116E+00
         25   -1    0    0    0    0  0.00000000000E+00  0.00000000000E+00  0.99999998245E-14  0.12500000000E+03  0.12500000000E+03 0.  0.
        -11    1    3    3    0    0 -0.27775067052E+02  0.43095060867E+02 -0.12183399965E+02  0.52697949257E+02  0.51100000000E-03 0. -1.
         23    2    1    0    0    0  0.70576610599E+01  0.28288542159E+02 -0.17617219539E+02  0.90935082248E+02  0.84313525380E+02 0.  0.
         11    1    3    3    0    0  0.34832728112E+02 -0.14806518708E+02 -0.54338195739E+01  0.38237132991E+02  0.51100000000E-03 0.  1.
         22    1    1    0    0    0 -0.70576610599E+01 -0.28288542159E+02  0.17617219539E+02  0.34064917752E+02  0.00000000000E+00 0. -1.
</event>
<event>
 5    1  0.1096978E-009  0.9118800E+02  0.7818608E-02  0.1130116E+00
         25   -1    0    0    0    0  0.00000000000E+00  0.00000000000E+00  0.99999998245E-14  0.12500000000E+03  0.12500000000E+03 0.  0.
        -11    1    3    3    0    0  0.19935626980E+02  0.32000336659E+02 -0.24796300724E+02  0.45125461762E+02  0.51100000000E-03 0. -1.
         23    2    1    0    0    0 -0.24405395055E+02  0.93876666569E+01 -0.89947746316E+01  0.97347557726E+02  0.93337502813E+02 0.  0.
         11    1    3    3    0    0 -0.44341022035E+02 -0.22612670002E+02  0.15801526092E+02  0.52222095964E+02  0.51100000000E-03 0.  1.
         22    1    1    0    0    0  0.24405395055E+02 -0.93876666569E+01  0.89947746316E+01  0.27652442274E+02  0.00000000000E+00 0.  1.
</event>
<event>
 5    1  0.1096978E-009  0.9118800E+02  0.7818608E-02  0.1130116E+00
         25   -1    0    0    0    0  0.00000000000E+00  0.00000000000E+00  0.99999998245E-14  0.12500000000E+03  0.12500000000E+03 0.  0.
        -11    1    3    3    0    0  0.59505750200E+02  0.48148189646E+00 -0.17817260210E+02  0.62117798523E+02  0.51100000000E-03 0.  1.
         23    2    1    0    0    0  0.27912601426E+02  0.50977105268E+01 -0.81098512873E+01  0.95489499176E+02  0.90815058190E+02 0.  0.
         11    1    3    3    0    0 -0.31593148774E+02  0.46162286303E+01  0.97074089229E+01  0.33371700653E+02  0.51100000000E-03 0. -1.
         22    1    1    0    0    0 -0.27912601426E+02 -0.50977105268E+01  0.81098512873E+01  0.29510500824E+02  0.00000000000E+00 0.  1.
</event>
<event>
 5    1  0.1096978E-009  0.9118800E+02  0.7818608E-02  0.1130116E+00
         25   -1    0    0    0    0  0.00000000000E+00  0.00000000000E+00  0.99999998245E-14  0.12500000000E+03  0.12500000000E+03 0.  0.
        -11    1    3    3    0    0  0.21933635942E+02  0.89062206028E+01 -0.51527359216E+02  0.56705148788E+02  0.51100000000E-03 0.  1.
         23    2    1    0    0    0 -0.20524094381E+01 -0.10136490144E+02 -0.27462127867E+02  0.95654995588E+02  0.91042566402E+02 0.  0.
         11    1    3    3    0    0 -0.23986045380E+02 -0.19042710747E+02  0.24065231349E+02  0.38949846800E+02  0.51100000000E-03 0. -1.
         22    1    1    0    0    0  0.20524094381E+01  0.10136490144E+02  0.27462127867E+02  0.29345004412E+02  0.00000000000E+00 0.  1.
</event>
<event>
 5    1  0.1096978E-009  0.9118800E+02  0.7818608E-02  0.1130116E+00
         25   -1    0    0    0    0  0.00000000000E+00  0.00000000000E+00  0.99999998245E-14  0.12500000000E+03  0.12500000000E+03 0.  0.
        -11    1    3    3    0    0 -0.36174596542E+02  0.39197416444E+02  0.32439530926E+02  0.62428855970E+02  0.51100000000E-03 0.  1.
         23    2    1    0    0    0 -0.20370499224E+02  0.23419402485E+02  0.21038722589E+02  0.87502620097E+02  0.79061084133E+02 0.  0.
         11    1    3    3    0    0  0.15804097317E+02 -0.15778013959E+02 -0.11400808337E+02  0.25073764127E+02  0.51100000000E-03 0. -1.
         22    1    1    0    0    0  0.20370499224E+02 -0.23419402485E+02 -0.21038722589E+02  0.37497379903E+02  0.00000000000E+00 0.  1.
</event>
<event>
 5    1  0.1096978E-009  0.9118800E+02  0.7818608E-02  0.1130116E+00
         25   -1    0    0    0    0  0.00000000000E+00  0.00000000000E+00  0.99999998245E-14  0.12500000000E+03  0.12500000000E+03 0.  0.
        -11    1    3    3    0    0  0.40498977402E+02  0.81340262565E+01 -0.94152632416E+01  0.42367165777E+02  0.51100000000E-03 0.  1.
         23    2    1    0    0    0  0.40230784881E+01 -0.28115228619E+02  0.58343939761E+01  0.96005321283E+02  0.91522294119E+02 0.  0.
         11    1    3    3    0    0 -0.36475898914E+02 -0.36249254875E+02  0.15249657218E+02  0.53638155507E+02  0.51100000000E-03 0. -1.
         22    1    1    0    0    0 -0.40230784881E+01  0.28115228619E+02 -0.58343939761E+01  0.28994678717E+02  0.00000000000E+00 0. -1.
</event>
<event>
 5    1  0.1096978E-009  0.9118800E+02  0.7818608E-02  0.1130116E+00
         25   -1    0    0    0    0  0.00000000000E+00  0.00000000000E+00  0.99999998245E-14  0.12500000000E+03  0.12500000000E+03 0.  0.
        -11    1    3    3    0    0 -0.12423094807E+02  0.14757680467E+01  0.51462109890E+02  0.52960928339E+02  0.51100000000E-03 0.  1.
         23    2    1    0    0    0  0.17609106138E+02  0.84526380719E+01  0.21474817588E+02  0.95970781964E+02  0.91475108587E+02 0.  0.
         11    1    3    3    0    0  0.30032200945E+02  0.69768700252E+01 -0.29987292302E+02  0.43009853625E+02  0.51100000000E-03 0. -1.
         22    1    1    0    0    0 -0.17609106138E+02 -0.84526380719E+01 -0.21474817588E+02  0.29029218036E+02  0.00000000000E+00 0.  1.
</event>
<event>
 5    1  0.1096978E-009  0.9118800E+02  0.7818608E-02  0.1130116E+00
         25   -1    0    0    0    0  0.00000000000E+00  0.00000000000E+00  0.99999998245E-14  0.12500000000E+03  0.12500000000E+03 0.  0.
        -11    1    3    3    0    0  0.11021972234E+02 -0.34975355190E+02  0.15083527803E+02  0.39651887141E+02  0.51100000000E-03 0. -1.
         23    2    1    0    0    0 -0.33431330006E+01  0.20439453387E+02  0.18813491824E+02  0.97019734319E+02  0.92897435808E+02 0.  0.
         11    1    3    3    0    0 -0.14365105234E+02  0.55414808577E+02  0.37299640206E+01  0.57367847178E+02  0.51100000000E-03 0.  1.
         22    1    1    0    0    0  0.33431330006E+01 -0.20439453387E+02 -0.18813491824E+02  0.27980265681E+02  0.00000000000E+00 0.  1.
</event>
<event>
 5    1  0.1096978E-009  0.9118800E+02  0.7818608E-02  0.1130116E+00
         25   -1    0    0    0    0  0.00000000000E+00  0.00000000000E+00  0.99999998245E-14  0.12500000000E+03  0.12500000000E+03 0.  0.
        -11    1    3    3    0    0 -0.22371182613E+02  0.23926380421E+02  0.73038548539E+01  0.33560211375E+02  0.51100000000E-03 0. -1.
         23    2    1    0    0    0  0.17966180786E+02 -0.12798236396E+02 -0.20586520416E+02  0.94827440783E+02  0.89899166824E+02 0.  0.
         11    1    3    3    0    0  0.40337363399E+02 -0.36724616817E+02 -0.27890375269E+02  0.61267229408E+02  0.51100000000E-03 0.  1.
         22    1    1    0    0    0 -0.17966180786E+02  0.12798236396E+02  0.20586520416E+02  0.30172559217E+02  0.00000000000E+00 0.  1.
</event>
<event>
 5    1  0.1096978E-009  0.9118800E+02  0.7818608E-02  0.1130116E+00
         25   -1    0    0    0    0  0.00000000000E+00  0.00000000000E+00  0.99999998245E-14  0.12500000000E+03  0.12500000000E+03 0.  0.
        -11    1    3    3    0    0 -0.10847047684E+02 -0.43254775702E+02 -0.15284189958E+02  0.47140646235E+02  0.51100000000E-03 0.  1.
         23    2    1    0    0    0 -0.17959852763E+02 -0.10879365098E+02  0.20315326233E+02  0.95783063539E+02  0.91218232195E+02 0.  0.
         11    1    3    3    0    0 -0.71128050789E+01  0.32375410604E+02  0.35599516191E+02  0.48642417304E+02  0.51100000000E-03 0. -1.
         22    1    1    0    0    0  0.17959852763E+02  0.10879365098E+02 -0.20315326233E+02  0.29216936461E+02  0.00000000000E+00 0.  1.
</event>
<event>
 5    1  0.1096978E-009  0.9118800E+02  0.7818608E-02  0.1130116E+00
         25   -1    0    0    0    0  0.00000000000E+00  0.00000000000E+00  0.99999998245E-14  0.12500000000E+03  0.12500000000E+03 0.  0.
        -11    1    3    3    0    0  0.41655651929E+02  0.83421479689E+01  0.16310010970E+02  0.45506057053E+02  0.51100000000E-03 0.  1.
         23    2    1    0    0    0  0.14319451372E+02 -0.14802852279E+02 -0.19844910222E+02  0.96399447822E+02  0.92059013439E+02 0.  0.
         11    1    3    3    0    0 -0.27336200557E+02 -0.23145000248E+02 -0.36154921191E+02  0.50893390769E+02  0.51100000000E-03 0. -1.
         22    1    1    0    0    0 -0.14319451372E+02  0.14802852279E+02  0.19844910222E+02  0.28600552178E+02  0.00000000000E+00 0. -1.
</event>
<event>
 5    1  0.1096978E-009  0.9118800E+02  0.7818608E-02  0.1130116E+00
         25   -1    0    0    0    0  0.00000000000E+00  0.00000000000E+00  0.99999998245E-14  0.12500000000E+03  0.12500000000E+03 0.  0.
        -11    1    3    3    0    0 -0.76563672201E+01 -0.24210029587E+02 -0.36878405122E+02  0.44774571536E+02  0.51100000000E-03 0. -1.
         23    2    1    0    0    0  0.10212830508E+02  0.19910333741E+02 -0.19074005368E+02  0.95596922313E+02  0.90962797771E+02 0.  0.
         11    1    3    3    0    0  0.17869197728E+02  0.44120363329E+02  0.17804399754E+02  0.50822350777E+02  0.51100000000E-03 0.  1.
         22    1    1    0    0    0 -0.10212830508E+02 -0.19910333741E+02  0.19074005368E+02  0.29403077687E+02  0.00000000000E+00 0.  1.
</event>
<event>
 5    1  0.1096978E-009  0.9118800E+02  0.7818608E-02  0.1130116E+00
         25   -1    0    0    0    0  0.00000000000E+00  0.00000000000E+00  0.99999998245E-14  0.12500000000E+03  0.12500000000E+03 0.  0.
        -11    1    3    3    0    0 -0.99418149768E+01  0.16844020050E+02 -0.19282113102E+02  0.27465625469E+02  0.51100000000E-03 0. -1.
         23    2    1    0    0    0 -0.93703262856E+01 -0.35298841450E+02  0.98182142342E+01  0.87181901778E+02  0.78552373894E+02 0.  0.
         11    1    3    3    0    0  0.57148869114E+00 -0.52142861500E+02  0.29100327336E+02  0.59716276308E+02  0.51100000000E-03 0.  1.
         22    1    1    0    0    0  0.93703262856E+01  0.35298841450E+02 -0.98182142342E+01  0.37818098222E+02  0.00000000000E+00 0.  1.
</event>
<event>
 5    1  0.1096978E-009  0.9118800E+02  0.7818608E-02  0.1130116E+00
         25   -1    0    0    0    0  0.00000000000E+00  0.00000000000E+00  0.99999998245E-14  0.12500000000E+03  0.12500000000E+03 0.  0.
        -11    1    3    3    0    0  0.53218212548E+02  0.44578677178E+01  0.21184758209E+02  0.57452978269E+02  0.51100000000E-03 0.  1.
         23    2    1    0    0    0  0.22057598025E+02  0.19313718195E+02  0.64850645810E+01  0.94973121978E+02  0.90101501066E+02 0.  0.
         11    1    3    3    0    0 -0.31160614523E+02  0.14855850477E+02 -0.14699693628E+02  0.37520143708E+02  0.51100000000E-03 0. -1.
         22    1    1    0    0    0 -0.22057598025E+02 -0.19313718195E+02 -0.64850645810E+01  0.30026878022E+02  0.00000000000E+00 0.  1.
</event>
<event>
 5    1  0.1096978E-009  0.9118800E+02  0.7818608E-02  0.1130116E+00
         25   -1    0    0    0    0  0.00000000000E+00  0.00000000000E+00  0.99999998245E-14  0.12500000000E+03  0.12500000000E+03 0.  0.
        -11    1    3    3    0    0  0.56486361636E+02  0.75238848975E+01 -0.23831769475E+02  0.61767881067E+02  0.51100000000E-03 0. -1.
         23    2    1    0    0    0  0.20493772278E+02  0.58408710173E+01 -0.15215329935E+02  0.98815715754E+02  0.95283413764E+02 0.  0.
         11    1    3    3    0    0 -0.35992589358E+02 -0.16830138802E+01  0.86164395406E+01  0.37047834687E+02  0.51100000000E-03 0.  1.
         22    1    1    0    0    0 -0.20493772278E+02 -0.58408710173E+01  0.15215329935E+02  0.26184284246E+02  0.00000000000E+00 0. -1.
</event>
<event>
 5    1  0.1096978E-009  0.9118800E+02  0.7818608E-02  0.1130116E+00
         25   -1    0    0    0    0  0.00000000000E+00  0.00000000000E+00  0.99999998245E-14  0.12500000000E+03  0.12500000000E+03 0.  0.
        -11    1    3    3    0    0  0.27905540365E+02 -0.25006864718E+02  0.48790309755E+02  0.61518751551E+02  0.51100000000E-03 0.  1.
         23    2    1    0    0    0  0.14708929179E+02 -0.18951386891E+02  0.19985236589E+02  0.93776333588E+02  0.88425581124E+02 0.  0.
         11    1    3    3    0    0 -0.13196611187E+02  0.60554778265E+01 -0.28805073166E+02  0.32257582038E+02  0.51100000000E-03 0. -1.
         22    1    1    0    0    0 -0.14708929179E+02  0.18951386891E+02 -0.19985236589E+02  0.31223666412E+02  0.00000000000E+00 0.  1.
</event>
<event>
 5    1  0.1096978E-009  0.9118800E+02  0.7818608E-02  0.1130116E+00
         25   -1    0    0    0    0  0.00000000000E+00  0.00000000000E+00  0.99999998245E-14  0.12500000000E+03  0.12500000000E+03 0.  0.
        -11    1    3    3    0    0  0.15398569642E+02  0.83582351248E+01  0.58880675596E+02  0.61432157706E+02  0.51100000000E-03 0.  1.
         23    2    1    0    0    0  0.13010575363E+02  0.88950709605E+01  0.24702001980E+02  0.95698357375E+02  0.91102081995E+02 0.  0.
         11    1    3    3    0    0 -0.23879942792E+01  0.53683583569E+00 -0.34178673616E+02  0.34266199670E+02  0.51100000000E-03 0. -1.
         22    1    1    0    0    0 -0.13010575363E+02 -0.88950709605E+01 -0.24702001980E+02  0.29301642625E+02  0.00000000000E+00 0.  1.
</event>
<event>
 5    1  0.1096978E-009  0.9118800E+02  0.7818608E-02  0.1130116E+00
         25   -1    0    0    0    0  0.00000000000E+00  0.00000000000E+00  0.99999998245E-14  0.12500000000E+03  0.12500000000E+03 0.  0.
        -11    1    3    3    0    0  0.63866562858E+00 -0.34859053177E+02 -0.13366960469E+02  0.37339484660E+02  0.51100000000E-03 0.  1.
         23    2    1    0    0    0 -0.44751976555E+01  0.24642970970E+02 -0.12362033935E+02  0.97069312660E+02  0.92964122999E+02 0.  0.
         11    1    3    3    0    0 -0.51138632840E+01  0.59502024147E+02  0.10049265334E+01  0.59729828000E+02  0.51100000000E-03 0. -1.
         22    1    1    0    0    0  0.44751976555E+01 -0.24642970970E+02  0.12362033935E+02  0.27930687340E+02  0.00000000000E+00 0. -1.
</event>
<event>
 5    1  0.1096978E-009  0.9118800E+02  0.7818608E-02  0.1130116E+00
         25   -1    0    0    0    0  0.00000000000E+00  0.00000000000E+00  0.99999998245E-14  0.12500000000E+03  0.12500000000E+03 0.  0.
        -11    1    3    3    0    0  0.37795183045E+02  0.14341221971E+02 -0.16973377633E+02  0.43843381001E+02  0.51100000000E-03 0. -1.
         23    2    1    0    0    0  0.14047648029E+02 -0.24537471041E+02  0.77578395531E+01  0.95680928140E+02  0.91078164424E+02 0.  0.
         11    1    3    3    0    0 -0.23747535016E+02 -0.38878693012E+02  0.24731217186E+02  0.51837547139E+02  0.51100000000E-03 0.  1.
         22    1    1    0    0    0 -0.14047648029E+02  0.24537471041E+02 -0.77578395531E+01  0.29319071860E+02  0.00000000000E+00 0.  1.
</event>
<event>
 5    1  0.1096978E-009  0.9118800E+02  0.7818608E-02  0.1130116E+00
         25   -1    0    0    0    0  0.00000000000E+00  0.00000000000E+00  0.99999998245E-14  0.12500000000E+03  0.12500000000E+03 0.  0.
        -11    1    3    3    0    0  0.88347489091E+01  0.26082612328E+02  0.52530672570E+02  0.59311272243E+02  0.51100000000E-03 0. -1.
         23    2    1    0    0    0 -0.21283311627E+01  0.21287772382E+02  0.14562923159E+02  0.99119934748E+02  0.95681678951E+02 0.  0.
         11    1    3    3    0    0 -0.10963080072E+02 -0.47948399465E+01 -0.37967749411E+02  0.39808662504E+02  0.51100000000E-03 0.  1.
         22    1    1    0    0    0  0.21283311627E+01 -0.21287772382E+02 -0.14562923159E+02  0.25880065252E+02  0.00000000000E+00 0. -1.
</event>
<event>
 5    1  0.1096978E-009  0.9118800E+02  0.7818608E-02  0.1130116E+00
         25   -1    0    0    0    0  0.00000000000E+00  0.00000000000E+00  0.99999998245E-14  0.12500000000E+03  0.12500000000E+03 0.  0.
        -11    1    3    3    0    0 -0.14589811881E+01  0.38453158938E+02  0.88045216294E+01  0.39475228432E+02  0.51100000000E-03 0.  1.
         23    2    1    0    0    0  0.23369728715E+02 -0.12233500345E+02  0.12029484510E+02  0.96008427975E+02  0.91526537102E+02 0.  0.
         11    1    3    3    0    0  0.24828709903E+02 -0.50686659283E+02  0.32249628808E+01  0.56533199543E+02  0.51100000000E-03 0. -1.
         22    1    1    0    0    0 -0.23369728715E+02  0.12233500345E+02 -0.12029484510E+02  0.28991572025E+02  0.00000000000E+00 0.  1.
</event>
<event>
 5    1  0.1096978E-009  0.9118800E+02  0.7818608E-02  0.1130116E+00
         25   -1    0    0    0    0  0.00000000000E+00  0.00000000000E+00  0.99999998245E-14  0.12500000000E+03  0.12500000000E+03 0.  0.
        -11    1    3    3    0    0 -0.22427530753E+02  0.55384841039E+01  0.25877844166E+02  0.34689072642E+02  0.51100000000E-03 0.  1.
         23    2    1    0    0    0  0.11958964418E+02  0.13369132866E+02 -0.23542626238E+02  0.95402604950E+02  0.90695376054E+02 0.  0.
         11    1    3    3    0    0  0.34386495171E+02  0.78306487618E+01 -0.49420470404E+02  0.60713532308E+02  0.51100000000E-03 0. -1.
         22    1    1    0    0    0 -0.11958964418E+02 -0.13369132866E+02  0.23542626238E+02  0.29597395050E+02  0.00000000000E+00 0. -1.
</event>
<event>
 5    1  0.1096978E-009  0.9118800E+02  0.7818608E-02  0.1130116E+00
         25   -1    0    0    0    0  0.00000000000E+00  0.00000000000E+00  0.99999998245E-14  0.12500000000E+03  0.12500000000E+03 0.  0.
        -11    1    3    3    0    0  0.20042085763E+02  0.83828104993E+01  0.33207184641E+02  0.39682160043E+02  0.51100000000E-03 0. -1.
         23    2    1    0    0    0 -0.17104389885E+02 -0.23846676969E+02  0.14086343260E+02  0.92447746280E+02  0.86527085759E+02 0.  0.
         11    1    3    3    0    0 -0.37146475648E+02 -0.32229487468E+02 -0.19120841381E+02  0.52765586237E+02  0.51100000000E-03 0.  1.
         22    1    1    0    0    0  0.17104389885E+02  0.23846676969E+02 -0.14086343260E+02  0.32552253720E+02  0.00000000000E+00 0. -1.
</event>
<event>
 5    1  0.1096978E-009  0.9118800E+02  0.7818608E-02  0.1130116E+00
         25   -1    0    0    0    0  0.00000000000E+00  0.00000000000E+00  0.99999998245E-14  0.12500000000E+03  0.12500000000E+03 0.  0.
        -11    1    3    3    0    0  0.21736020382E+02  0.15875108122E+02 -0.27463799267E+02  0.38454309386E+02  0.51100000000E-03 0.  1.
         23    2    1    0    0    0 -0.24573179449E+02 -0.11414070451E+02 -0.22904102974E+01  0.97808675431E+02  0.93953014097E+02 0.  0.
         11    1    3    3    0    0 -0.46309199831E+02 -0.27289178572E+02  0.25173388970E+02  0.59354366045E+02  0.51100000000E-03 0. -1.
         22    1    1    0    0    0  0.24573179449E+02  0.11414070451E+02  0.22904102974E+01  0.27191324569E+02  0.00000000000E+00 0. -1.
</event>
<event>
 5    1  0.1096978E-009  0.9118800E+02  0.7818608E-02  0.1130116E+00
         25   -1    0    0    0    0  0.00000000000E+00  0.00000000000E+00  0.99999998245E-14  0.12500000000E+03  0.12500000000E+03 0.  0.
        -11    1    3    3    0    0 -0.31952006806E+02  0.26848926088E+02 -0.16175175879E+02  0.44759712756E+02  0.51100000000E-03 0.  1.
         23    2    1    0    0    0  0.60309989697E+01  0.22583132838E+02  0.17579437830E+02  0.95752650175E+02  0.91176546018E+02 0.  0.
         11    1    3    3    0    0  0.37983005775E+02 -0.42657932506E+01  0.33754613709E+02  0.50992937420E+02  0.51100000000E-03 0. -1.
         22    1    1    0    0    0 -0.60309989697E+01 -0.22583132838E+02 -0.17579437830E+02  0.29247349825E+02  0.00000000000E+00 0.  1.
</event>
<event>
 5    1  0.1096978E-009  0.9118800E+02  0.7818608E-02  0.1130116E+00
         25   -1    0    0    0    0  0.00000000000E+00  0.00000000000E+00  0.99999998245E-14  0.12500000000E+03  0.12500000000E+03 0.  0.
        -11    1    3    3    0    0 -0.14116449283E+02  0.15274339590E+02 -0.58756912067E+02  0.62329401619E+02  0.51100000000E-03 0. -1.
         23    2    1    0    0    0 -0.63355035887E+01  0.33358567000E+01 -0.25569679448E+02  0.98446750618E+02  0.94798141620E+02 0.  0.
         11    1    3    3    0    0  0.77809456943E+01 -0.11938482890E+02  0.33187232619E+02  0.36117349000E+02  0.51100000000E-03 0.  1.
         22    1    1    0    0    0  0.63355035887E+01 -0.33358567000E+01  0.25569679448E+02  0.26553249382E+02  0.00000000000E+00 0. -1.
</event>
<event>
 5    1  0.1096978E-009  0.9118800E+02  0.7818608E-02  0.1130116E+00
         25   -1    0    0    0    0  0.00000000000E+00  0.00000000000E+00  0.99999998245E-14  0.12500000000E+03  0.12500000000E+03 0.  0.
        -11    1    3    3    0    0  0.41846588467E+02  0.13424221850E+02 -0.31854210868E+02  0.54277411959E+02  0.51100000000E-03 0.  1.
         23    2    1    0    0    0  0.25133470461E+02  0.12710358087E+02  0.64773080279E+01  0.96100171984E+02  0.91651748461E+02 0.  0.
         11    1    3    3    0    0 -0.16713118007E+02 -0.71386376297E+00  0.38331518896E+02  0.41822760025E+02  0.51100000000E-03 0. -1.
         22    1    1    0    0    0 -0.25133470461E+02 -0.12710358087E+02 -0.64773080279E+01  0.28899828016E+02  0.00000000000E+00 0.  1.
</event>
<event>
 5    1  0.1096978E-009  0.9118800E+02  0.7818608E-02  0.1130116E+00
         25   -1    0    0    0    0  0.00000000000E+00  0.00000000000E+00  0.99999998245E-14  0.12500000000E+03  0.12500000000E+03 0.  0.
        -11    1    3    3    0    0  0.32923023431E+02  0.42270483115E+02  0.15597579877E+02  0.55803258981E+02  0.51100000000E-03 0. -1.
         23    2    1    0    0    0  0.32636492672E+02  0.91431185151E+01  0.11622865587E+02  0.89169450541E+02  0.81653919901E+02 0.  0.
         11    1    3    3    0    0 -0.28653075851E+00 -0.33127364600E+02 -0.39747142906E+01  0.33366191560E+02  0.51100000000E-03 0.  1.
         22    1    1    0    0    0 -0.32636492672E+02 -0.91431185151E+01 -0.11622865587E+02  0.35830549459E+02  0.00000000000E+00 0. -1.
</event>
<event>
 5    1  0.1096978E-009  0.9118800E+02  0.7818608E-02  0.1130116E+00
         25   -1    0    0    0    0  0.00000000000E+00  0.00000000000E+00  0.99999998245E-14  0.12500000000E+03  0.12500000000E+03 0.  0.
        -11    1    3    3    0    0  0.86893497847E+01 -0.14291847902E+02 -0.40131005906E+02  0.43477112961E+02  0.51100000000E-03 0.  1.
         23    2    1    0    0    0 -0.25857249390E+02  0.10708048069E+02 -0.12093160638E+02  0.94512229113E+02  0.89459808172E+02 0.  0.
         11    1    3    3    0    0 -0.34546599175E+02  0.24999895970E+02  0.28037845269E+02  0.51035116152E+02  0.51100000000E-03 0. -1.
         22    1    1    0    0    0  0.25857249390E+02 -0.10708048069E+02  0.12093160638E+02  0.30487770887E+02  0.00000000000E+00 0. -1.
</event>
<event>
 5    1  0.1096978E-009  0.9118800E+02  0.7818608E-02  0.1130116E+00
         25   -1    0    0    0    0  0.00000000000E+00  0.00000000000E+00  0.99999998245E-14  0.12500000000E+03  0.12500000000E+03 0.  0.
        -11    1    3    3    0    0  0.19727556199E+02  0.80163798694E+01  0.55880157485E+02  0.59799923249E+02  0.51100000000E-03 0.  1.
         23    2    1    0    0    0  0.12276936728E+02 -0.88619124561E+01  0.25513419685E+02  0.95331982677E+02  0.90597989323E+02 0.  0.
         11    1    3    3    0    0 -0.74506194702E+01 -0.16878292326E+02 -0.30366737800E+02  0.35532059428E+02  0.51100000000E-03 0. -1.
         22    1    1    0    0    0 -0.12276936728E+02  0.88619124561E+01 -0.25513419685E+02  0.29668017323E+02  0.00000000000E+00 0.  1.
</event>
<event>
 5    1  0.1096978E-009  0.9118800E+02  0.7818608E-02  0.1130116E+00
         25   -1    0    0    0    0  0.00000000000E+00  0.00000000000E+00  0.99999998245E-14  0.12500000000E+03  0.12500000000E+03 0.  0.
        -11    1    3    3    0    0  0.33926933697E+02 -0.77482023110E+01 -0.34696590500E+00  0.34802181753E+02  0.51100000000E-03 0.  1.
         23    2    1    0    0    0 -0.18441156769E+02 -0.25074224526E+02 -0.12791870443E+02  0.91348477777E+02  0.84924198225E+02 0.  0.
         11    1    3    3    0    0 -0.52368090466E+02 -0.17326022215E+02 -0.12444904538E+02  0.56546296024E+02  0.51100000000E-03 0. -1.
         22    1    1    0    0    0  0.18441156769E+02  0.25074224526E+02  0.12791870443E+02  0.33651522223E+02  0.00000000000E+00 0. -1.
</event>
<event>
 5    1  0.1096978E-009  0.9118800E+02  0.7818608E-02  0.1130116E+00
         25   -1    0    0    0    0  0.00000000000E+00  0.00000000000E+00  0.99999998245E-14  0.12500000000E+03  0.12500000000E+03 0.  0.
        -11    1    3    3    0    0  0.11093216507E+02  0.99579556289E+01  0.37047636020E+02  0.39934291877E+02  0.51100000000E-03 0.  1.
         23    2    1    0    0    0 -0.25530574346E+02  0.14867387389E+02 -0.40256191624E+01  0.95182973927E+02  0.90392164935E+02 0.  0.
         11    1    3    3    0    0 -0.36623790854E+02  0.49094317597E+01 -0.41073255182E+02  0.55248682050E+02  0.51100000000E-03 0. -1.
         22    1    1    0    0    0  0.25530574346E+02 -0.14867387389E+02  0.40256191624E+01  0.29817026073E+02  0.00000000000E+00 0. -1.
</event>
<event>
 5    1  0.1096978E-009  0.9118800E+02  0.7818608E-02  0.1130116E+00
         25   -1    0    0    0    0  0.00000000000E+00  0.00000000000E+00  0.99999998245E-14  0.12500000000E+03  0.12500000000E+03 0.  0.
        -11    1    3    3    0    0 -0.22291244490E+02  0.48296305815E+02 -0.29071595090E+02  0.60618399662E+02  0.51100000000E-03 0. -1.
         23    2    1    0    0    0 -0.23185535301E+01  0.27401530518E+02 -0.80915445523E+01  0.96334818011E+02  0.91971215621E+02 0.  0.
         11    1    3    3    0    0  0.19972690960E+02 -0.20894775296E+02  0.20980050538E+02  0.35716418349E+02  0.51100000000E-03 0.  1.
         22    1    1    0    0    0  0.23185535301E+01 -0.27401530518E+02  0.80915445523E+01  0.28665181989E+02  0.00000000000E+00 0. -1.
</event>
<event>
 5    1  0.1096978E-009  0.9118800E+02  0.7818608E-02  0.1130116E+00
         25   -1    0    0    0    0  0.00000000000E+00  0.00000000000E+00  0.99999998245E-14  0.12500000000E+03  0.12500000000E+03 0.  0.
        -11    1    3    3    0    0 -0.17743896289E+02 -0.52709951710E+02 -0.11343282853E+02  0.56761385915E+02  0.51100000000E-03 0.  1.
         23    2    1    0    0    0  0.94278563947E+01 -0.21823080830E+02 -0.12947555916E+02  0.97930265289E+02  0.94114644569E+02 0.  0.
         11    1    3    3    0    0  0.27171752683E+02  0.30886870880E+02 -0.16042730630E+01  0.41168879375E+02  0.51100000000E-03 0. -1.
         22    1    1    0    0    0 -0.94278563947E+01  0.21823080830E+02  0.12947555916E+02  0.27069734711E+02  0.00000000000E+00 0.  1.
</event>
<event>
 5    1  0.1096978E-009  0.9118800E+02  0.7818608E-02  0.1130116E+00
         25   -1    0    0    0    0  0.00000000000E+00  0.00000000000E+00  0.99999998245E-14  0.12500000000E+03  0.12500000000E+03 0.  0.
        -11    1    3    3    0    0  0.69609780268E+01 -0.43904330292E+02 -0.27707145173E+02  0.52380638860E+02  0.51100000000E-03 0.  1.
         23    2    1    0    0    0 -0.29542649604E+01 -0.28310748214E+01 -0.30025197014E+02  0.94697275340E+02  0.89717996160E+02 0.  0.
         11    1    3    3    0    0 -0.99152429872E+01  0.41073255470E+02 -0.23180518404E+01  0.42316636480E+02  0.51100000000E-03 0. -1.
         22    1    1    0    0    0  0.29542649604E+01  0.28310748214E+01  0.30025197014E+02  0.30302724660E+02  0.00000000000E+00 0.  1.
</event>
<event>
 5    1  0.1096978E-009  0.9118800E+02  0.7818608E-02  0.1130116E+00
         25   -1    0    0    0    0  0.00000000000E+00  0.00000000000E+00  0.99999998245E-14  0.12500000000E+03  0.12500000000E+03 0.  0.
        -11    1    3    3    0    0  0.47727204473E+02  0.38574255819E+02  0.31019944320E+01  0.61444947950E+02  0.51100000000E-03 0.  1.
         23    2    1    0    0    0  0.20454659913E+02  0.18578372581E+02 -0.65281234988E+01  0.96606947393E+02  0.92340331645E+02 0.  0.
         11    1    3    3    0    0 -0.27272544560E+02 -0.19995883238E+02 -0.96301179308E+01  0.35161999443E+02  0.51100000000E-03 0. -1.
         22    1    1    0    0    0 -0.20454659913E+02 -0.18578372581E+02  0.65281234988E+01  0.28393052607E+02  0.00000000000E+00 0.  1.
</event>
<event>
 5    1  0.1096978E-009  0.9118800E+02  0.7818608E-02  0.1130116E+00
         25   -1    0    0    0    0  0.00000000000E+00  0.00000000000E+00  0.99999998245E-14  0.12500000000E+03  0.12500000000E+03 0.  0.
        -11    1    3    3    0    0  0.24316185877E+02 -0.45632931859E+02  0.33301287725E+02  0.61502984724E+02  0.51100000000E-03 0.  1.
         23    2    1    0    0    0  0.20231690524E+02 -0.21353027960E+02  0.17123195842E+02  0.90963593897E+02  0.84355785067E+02 0.  0.
         11    1    3    3    0    0 -0.40844953524E+01  0.24279903899E+02 -0.16178091883E+02  0.29460609173E+02  0.51100000000E-03 0. -1.
         22    1    1    0    0    0 -0.20231690524E+02  0.21353027960E+02 -0.17123195842E+02  0.34036406103E+02  0.00000000000E+00 0.  1.
</event>
<event>
 5    1  0.1096978E-009  0.9118800E+02  0.7818608E-02  0.1130116E+00
         25   -1    0    0    0    0  0.00000000000E+00  0.00000000000E+00  0.99999998245E-14  0.12500000000E+03  0.12500000000E+03 0.  0.
        -11    1    3    3    0    0 -0.34823618536E+02 -0.49946561947E+01 -0.44791403098E+02  0.56955252525E+02  0.51100000000E-03 0. -1.
         23    2    1    0    0    0 -0.20414716867E+02  0.15364111500E+02 -0.16930671577E+02  0.94349319307E+02  0.89231887947E+02 0.  0.
         11    1    3    3    0    0  0.14408901669E+02  0.20358767695E+02  0.27860731521E+02  0.37394066782E+02  0.51100000000E-03 0.  1.
         22    1    1    0    0    0  0.20414716867E+02 -0.15364111500E+02  0.16930671577E+02  0.30650680693E+02  0.00000000000E+00 0. -1.
</event>
<event>
 5    1  0.1096978E-009  0.9118800E+02  0.7818608E-02  0.1130116E+00
         25   -1    0    0    0    0  0.00000000000E+00  0.00000000000E+00  0.99999998245E-14  0.12500000000E+03  0.12500000000E+03 0.  0.
        -11    1    3    3    0    0 -0.18834091976E+02 -0.39783627304E+02  0.67546285820E+01  0.44531842872E+02  0.51100000000E-03 0. -1.
         23    2    1    0    0    0  0.24064622490E+02 -0.16087617523E+02 -0.65655743865E+01  0.95317947170E+02  0.90578622161E+02 0.  0.
         11    1    3    3    0    0  0.42898714466E+02  0.23696009781E+02 -0.13320202969E+02  0.50786104298E+02  0.51100000000E-03 0.  1.
         22    1    1    0    0    0 -0.24064622490E+02  0.16087617523E+02  0.65655743865E+01  0.29682052830E+02  0.00000000000E+00 0. -1.
</event>
<event>
 5    1  0.1096978E-009  0.9118800E+02  0.7818608E-02  0.1130116E+00
         25   -1    0    0    0    0  0.00000000000E+00  0.00000000000E+00  0.99999998245E-14  0.12500000000E+03  0.12500000000E+03 0.  0.
        -11    1    3    3    0    0 -0.35110775844E+01  0.47013979595E+02  0.69794449956E+01  0.47658730531E+02  0.51100000000E-03 0.  1.
         23    2    1    0    0    0 -0.22179183642E+02  0.32436894672E+01  0.17703089510E+02  0.96437137983E+02  0.92110175853E+02 0.  0.
         11    1    3    3    0    0 -0.18668106058E+02 -0.43770290127E+02  0.10723644514E+02  0.48778407452E+02  0.51100000000E-03 0. -1.
         22    1    1    0    0    0  0.22179183642E+02 -0.32436894672E+01 -0.17703089510E+02  0.28562862017E+02  0.00000000000E+00 0. -1.
</event>
<event>
 5    1  0.1096978E-009  0.9118800E+02  0.7818608E-02  0.1130116E+00
         25   -1    0    0    0    0  0.00000000000E+00  0.00000000000E+00  0.99999998245E-14  0.12500000000E+03  0.12500000000E+03 0.  0.
        -11    1    3    3    0    0  0.22050788938E+00  0.13623355025E+02 -0.47819147418E+02  0.49722382142E+02  0.51100000000E-03 0. -1.
         23    2    1    0    0    0 -0.21441516636E+02  0.12752488529E+02 -0.25402654367E+01  0.99923765278E+02  0.96726114982E+02 0.  0.
         11    1    3    3    0    0 -0.21662024526E+02 -0.87086649584E+00  0.45278881981E+02  0.50201383136E+02  0.51100000000E-03 0.  1.
         22    1    1    0    0    0  0.21441516636E+02 -0.12752488529E+02  0.25402654367E+01  0.25076234722E+02  0.00000000000E+00 0.  1.
</event>
<event>
 5    1  0.1096978E-009  0.9118800E+02  0.7818608E-02  0.1130116E+00
         25   -1    0    0    0    0  0.00000000000E+00  0.00000000000E+00  0.99999998245E-14  0.12500000000E+03  0.12500000000E+03 0.  0.
        -11    1    3    3    0    0 -0.81694531244E+01 -0.42938385505E+02  0.64276537185E+01  0.44178723915E+02  0.51100000000E-03 0.  1.
         23    2    1    0    0    0  0.22417270299E+02 -0.16847957855E+01  0.17251909093E+02  0.96662729281E+02  0.92415812068E+02 0.  0.
         11    1    3    3    0    0  0.30586723423E+02  0.41253589720E+02  0.10824255374E+02  0.52484005366E+02  0.51100000000E-03 0. -1.
         22    1    1    0    0    0 -0.22417270299E+02  0.16847957855E+01 -0.17251909093E+02  0.28337270719E+02  0.00000000000E+00 0. -1.
</event>
<event>
 5    1  0.1096978E-009  0.9118800E+02  0.7818608E-02  0.1130116E+00
         25   -1    0    0    0    0  0.00000000000E+00  0.00000000000E+00  0.99999998245E-14  0.12500000000E+03  0.12500000000E+03 0.  0.
        -11    1    3    3    0    0 -0.49064337124E+02  0.18644865300E+02  0.13852770622E+02  0.54284799287E+02  0.51100000000E-03 0.  1.
         23    2    1    0    0    0 -0.98647531738E+01  0.27239903598E+02  0.28958565940E+01  0.95884511190E+02  0.91357144207E+02 0.  0.
         11    1    3    3    0    0  0.39199583950E+02  0.85950382976E+01 -0.10956914028E+02  0.41599711904E+02  0.51100000000E-03 0. -1.
         22    1    1    0    0    0  0.98647531738E+01 -0.27239903598E+02 -0.28958565940E+01  0.29115488810E+02  0.00000000000E+00 0.  1.
</event>
<event>
 5    1  0.1096978E-009  0.9118800E+02  0.7818608E-02  0.1130116E+00
         25   -1    0    0    0    0  0.00000000000E+00  0.00000000000E+00  0.99999998245E-14  0.12500000000E+03  0.12500000000E+03 0.  0.
        -11    1    3    3    0    0  0.10794341141E+02  0.14471239632E+01 -0.39523333980E+02  0.40996413228E+02  0.51100000000E-03 0. -1.
         23    2    1    0    0    0 -0.19612434882E+02  0.20498041294E+02  0.28113097628E+01  0.96491742223E+02  0.92184247872E+02 0.  0.
         11    1    3    3    0    0 -0.30406776022E+02  0.19050917331E+02  0.42334643742E+02  0.55495328995E+02  0.51100000000E-03 0.  1.
         22    1    1    0    0    0  0.19612434882E+02 -0.20498041294E+02 -0.28113097628E+01  0.28508257777E+02  0.00000000000E+00 0.  1.
</event>
<event>
 5    1  0.1096978E-009  0.9118800E+02  0.7818608E-02  0.1130116E+00
         25   -1    0    0    0    0  0.00000000000E+00  0.00000000000E+00  0.99999998245E-14  0.12500000000E+03  0.12500000000E+03 0.  0.
        -11    1    3    3    0    0  0.61689450260E+01  0.46686432135E+02 -0.57873200594E+01  0.47446516226E+02  0.51100000000E-03 0. -1.
         23    2    1    0    0    0  0.18282602332E+02  0.74155756365E+01  0.20750928080E+02  0.96367058722E+02  0.92015024210E+02 0.  0.
         11    1    3    3    0    0  0.12113657307E+02 -0.39270856499E+02  0.26538248139E+02  0.48920542496E+02  0.51100000000E-03 0.  1.
         22    1    1    0    0    0 -0.18282602332E+02 -0.74155756365E+01 -0.20750928080E+02  0.28632941278E+02  0.00000000000E+00 0.  1.
</event>
<event>
 5    1  0.1096978E-009  0.9118800E+02  0.7818608E-02  0.1130116E+00
         25   -1    0    0    0    0  0.00000000000E+00  0.00000000000E+00  0.99999998245E-14  0.12500000000E+03  0.12500000000E+03 0.  0.
        -11    1    3    3    0    0 -0.44587059365E+02  0.13039440632E+02 -0.29898960924E+02  0.55244734948E+02  0.51100000000E-03 0.  1.
         23    2    1    0    0    0 -0.22425813371E+02 -0.15148898599E+02 -0.10894202718E+02  0.95826555106E+02  0.91277810976E+02 0.  0.
         11    1    3    3    0    0  0.22161245994E+02 -0.28188339231E+02  0.19004758206E+02  0.40581820158E+02  0.51100000000E-03 0. -1.
         22    1    1    0    0    0  0.22425813371E+02  0.15148898599E+02  0.10894202718E+02  0.29173444894E+02  0.00000000000E+00 0.  1.
</event>
<event>
 5    1  0.1096978E-009  0.9118800E+02  0.7818608E-02  0.1130116E+00
         25   -1    0    0    0    0  0.00000000000E+00  0.00000000000E+00  0.99999998245E-14  0.12500000000E+03  0.12500000000E+03 0.  0.
        -11    1    3    3    0    0 -0.49143408100E+01 -0.38921200903E+02  0.43471370307E+02  0.58555705631E+02  0.51100000000E-03 0.  1.
         23    2    1    0    0    0 -0.78196582767E+00 -0.26791281790E+02  0.68766555502E+01  0.97329209587E+02  0.93312927276E+02 0.  0.
         11    1    3    3    0    0  0.41323749823E+01  0.12129919113E+02 -0.36594714757E+02  0.38773503956E+02  0.51100000000E-03 0. -1.
         22    1    1    0    0    0  0.78196582767E+00  0.26791281790E+02 -0.68766555502E+01  0.27670790413E+02  0.00000000000E+00 0.  1.
</event>
<event>
 5    1  0.1096978E-009  0.9118800E+02  0.7818608E-02  0.1130116E+00
         25   -1    0    0    0    0  0.00000000000E+00  0.00000000000E+00  0.99999998245E-14  0.12500000000E+03  0.12500000000E+03 0.  0.
        -11    1    3    3    0    0  0.41397221234E+02 -0.76479180277E+01 -0.12242987857E+01  0.42115549193E+02  0.51100000000E-03 0. -1.
         23    2    1    0    0    0  0.17812859734E+01 -0.17716621657E+01  0.31233193005E+02  0.93665927302E+02  0.88269370823E+02 0.  0.
         11    1    3    3    0    0 -0.39615935260E+02  0.58762558620E+01  0.32457491791E+02  0.51550378109E+02  0.51100000000E-03 0.  1.
         22    1    1    0    0    0 -0.17812859734E+01  0.17716621657E+01 -0.31233193005E+02  0.31334072698E+02  0.00000000000E+00 0.  1.
</event>
<event>
 5    1  0.1096978E-009  0.9118800E+02  0.7818608E-02  0.1130116E+00
         25   -1    0    0    0    0  0.00000000000E+00  0.00000000000E+00  0.99999998245E-14  0.12500000000E+03  0.12500000000E+03 0.  0.
        -11    1    3    3    0    0  0.42229737286E+01 -0.10988909049E+02  0.57401171828E+02  0.58595939763E+02  0.51100000000E-03 0.  1.
         23    2    1    0    0    0 -0.11718111245E+02  0.25695209959E+01  0.26432850254E+02  0.95972217759E+02  0.91477070568E+02 0.  0.
         11    1    3    3    0    0 -0.15941084974E+02  0.13558430044E+02 -0.30968321575E+02  0.37376277996E+02  0.51100000000E-03 0. -1.
         22    1    1    0    0    0  0.11718111245E+02 -0.25695209959E+01 -0.26432850254E+02  0.29027782241E+02  0.00000000000E+00 0.  1.
</event>
<event>
 5    1  0.1096978E-009  0.9118800E+02  0.7818608E-02  0.1130116E+00
         25   -1    0    0    0    0  0.00000000000E+00  0.00000000000E+00  0.99999998245E-14  0.12500000000E+03  0.12500000000E+03 0.  0.
        -11    1    3    3    0    0  0.17958787164E+02  0.12377992111E+02  0.24881225886E+02  0.33087884897E+02  0.51100000000E-03 0.  1.
         23    2    1    0    0    0 -0.10003388363E+02 -0.28117760103E+02 -0.10130448127E+02  0.93483302977E+02  0.88010372936E+02 0.  0.
         11    1    3    3    0    0 -0.27962175527E+02 -0.40495752214E+02 -0.35011674013E+02  0.60395418080E+02  0.51100000000E-03 0. -1.
         22    1    1    0    0    0  0.10003388363E+02  0.28117760103E+02  0.10130448127E+02  0.31516697023E+02  0.00000000000E+00 0. -1.
</event>
<event>
 5    1  0.1096978E-009  0.9118800E+02  0.7818608E-02  0.1130116E+00
         25   -1    0    0    0    0  0.00000000000E+00  0.00000000000E+00  0.99999998245E-14  0.12500000000E+03  0.12500000000E+03 0.  0.
        -11    1    3    3    0    0 -0.88992635842E+01  0.49571216443E+02 -0.15334778901E+02  0.52646536792E+02  0.51100000000E-03 0.  1.
         23    2    1    0    0    0 -0.16895203427E+02  0.20247132611E+02  0.14218815248E+02  0.95040544316E+02  0.90194989213E+02 0.  0.
         11    1    3    3    0    0 -0.79959398426E+01 -0.29324083832E+02  0.29553594149E+02  0.42394007524E+02  0.51100000000E-03 0. -1.
         22    1    1    0    0    0  0.16895203427E+02 -0.20247132611E+02 -0.14218815248E+02  0.29959455684E+02  0.00000000000E+00 0.  1.
</event>
<event>
 5    1  0.1096978E-009  0.9118800E+02  0.7818608E-02  0.1130116E+00
         25   -1    0    0    0    0  0.00000000000E+00  0.00000000000E+00  0.99999998245E-14  0.12500000000E+03  0.12500000000E+03 0.  0.
        -11    1    3    3    0    0  0.15979046123E+02  0.32068889361E+02  0.14909052450E+02  0.38807517636E+02  0.51100000000E-03 0.  1.
         23    2    1    0    0    0 -0.22350434422E+02  0.73352410658E+01 -0.18270463251E+02  0.95214810597E+02  0.90436179980E+02 0.  0.
         11    1    3    3    0    0 -0.38329480545E+02 -0.24733648295E+02 -0.33179515701E+02  0.56407292962E+02  0.51100000000E-03 0. -1.
         22    1    1    0    0    0  0.22350434422E+02 -0.73352410658E+01  0.18270463251E+02  0.29785189403E+02  0.00000000000E+00 0. -1.
</event>
<event>
 5    1  0.1096978E-009  0.9118800E+02  0.7818608E-02  0.1130116E+00
         25   -1    0    0    0    0  0.00000000000E+00  0.00000000000E+00  0.99999998245E-14  0.12500000000E+03  0.12500000000E+03 0.  0.
        -11    1    3    3    0    0 -0.16136528372E+02 -0.30158075589E+02 -0.14938223938E+02  0.37323552963E+02  0.51100000000E-03 0. -1.
         23    2    1    0    0    0  0.23169065899E+01  0.20759497344E+02 -0.25014070529E+02  0.92411221094E+02  0.86474304123E+02 0.  0.
         11    1    3    3    0    0  0.18453434962E+02  0.50917572933E+02 -0.10075846591E+02  0.55087668131E+02  0.51100000000E-03 0.  1.
         22    1    1    0    0    0 -0.23169065899E+01 -0.20759497344E+02  0.25014070529E+02  0.32588778906E+02  0.00000000000E+00 0. -1.
</event>
<event>
 5    1  0.1096978E-009  0.9118800E+02  0.7818608E-02  0.1130116E+00
         25   -1    0    0    0    0  0.00000000000E+00  0.00000000000E+00  0.99999998245E-14  0.12500000000E+03  0.12500000000E+03 0.  0.
        -11    1    3    3    0    0 -0.22786298639E+02 -0.22955794839E+02 -0.11182907354E+02  0.34223403389E+02  0.51100000000E-03 0.  1.
         23    2    1    0    0    0 -0.16337823131E+02  0.11333180188E+02  0.30506041079E+02  0.88585937055E+02  0.80755707313E+02 0.  0.
         11    1    3    3    0    0  0.64484755074E+01  0.34288975028E+02  0.41688948434E+02  0.54362533666E+02  0.51100000000E-03 0. -1.
         22    1    1    0    0    0  0.16337823131E+02 -0.11333180188E+02 -0.30506041079E+02  0.36414062945E+02  0.00000000000E+00 0.  1.
</event>
<event>
 5    1  0.1096978E-009  0.9118800E+02  0.7818608E-02  0.1130116E+00
         25   -1    0    0    0    0  0.00000000000E+00  0.00000000000E+00  0.99999998245E-14  0.12500000000E+03  0.12500000000E+03 0.  0.
        -11    1    3    3    0    0 -0.26217861341E+01 -0.33882943714E+02 -0.69953705024E+01  0.34696726733E+02  0.51100000000E-03 0.  1.
         23    2    1    0    0    0 -0.13006533321E+02  0.21110018690E+02  0.16311259578E+02  0.95320714511E+02  0.90582441057E+02 0.  0.
         11    1    3    3    0    0 -0.10384747187E+02  0.54992962404E+02  0.23306630080E+02  0.60623987778E+02  0.51100000000E-03 0. -1.
         22    1    1    0    0    0  0.13006533321E+02 -0.21110018690E+02 -0.16311259578E+02  0.29679285489E+02  0.00000000000E+00 0. -1.
</event>
<event>
 5    1  0.1096978E-009  0.9118800E+02  0.7818608E-02  0.1130116E+00
         25   -1    0    0    0    0  0.00000000000E+00  0.00000000000E+00  0.99999998245E-14  0.12500000000E+03  0.12500000000E+03 0.  0.
        -11    1    3    3    0    0 -0.34075589765E+02 -0.25089082558E+02 -0.40046614152E+02  0.58260957654E+02  0.51100000000E-03 0.  1.
         23    2    1    0    0    0 -0.21259790594E+02 -0.19565483796E+02 -0.54074488190E+01  0.95605657772E+02  0.90974801143E+02 0.  0.
         11    1    3    3    0    0  0.12815799171E+02  0.55235987621E+01  0.34639165333E+02  0.37344700118E+02  0.51100000000E-03 0. -1.
         22    1    1    0    0    0  0.21259790594E+02  0.19565483796E+02  0.54074488190E+01  0.29394342228E+02  0.00000000000E+00 0.  1.
</event>
<event>
 5    1  0.1096978E-009  0.9118800E+02  0.7818608E-02  0.1130116E+00
         25   -1    0    0    0    0  0.00000000000E+00  0.00000000000E+00  0.99999998245E-14  0.12500000000E+03  0.12500000000E+03 0.  0.
        -11    1    3    3    0    0  0.10389171461E+01 -0.51523049250E+01 -0.41921236820E+02  0.42249446051E+02  0.51100000000E-03 0.  1.
         23    2    1    0    0    0 -0.26267018218E+02 -0.10658458555E+02  0.44121372694E+01  0.96311571321E+02  0.91939615129E+02 0.  0.
         11    1    3    3    0    0 -0.27305935364E+02 -0.55061536300E+01  0.46333374089E+02  0.54062125269E+02  0.51100000000E-03 0. -1.
         22    1    1    0    0    0  0.26267018218E+02  0.10658458555E+02 -0.44121372694E+01  0.28688428679E+02  0.00000000000E+00 0. -1.
</event>
<event>
 5    1  0.1096978E-009  0.9118800E+02  0.7818608E-02  0.1130116E+00
         25   -1    0    0    0    0  0.00000000000E+00  0.00000000000E+00  0.99999998245E-14  0.12500000000E+03  0.12500000000E+03 0.  0.
        -11    1    3    3    0    0 -0.25610322397E+02 -0.78196375782E+01 -0.22711970730E+02  0.35112233764E+02  0.51100000000E-03 0.  1.
         23    2    1    0    0    0  0.17590139320E+02  0.24067699520E+02  0.37172926816E+01  0.94958604786E+02  0.90081358763E+02 0.  0.
         11    1    3    3    0    0  0.43200461717E+02  0.31887337099E+02  0.26429263412E+02  0.59846371023E+02  0.51100000000E-03 0. -1.
         22    1    1    0    0    0 -0.17590139320E+02 -0.24067699520E+02 -0.37172926816E+01  0.30041395214E+02  0.00000000000E+00 0. -1.
</event>
<event>
 5    1  0.1096978E-009  0.9118800E+02  0.7818608E-02  0.1130116E+00
         25   -1    0    0    0    0  0.00000000000E+00  0.00000000000E+00  0.99999998245E-14  0.12500000000E+03  0.12500000000E+03 0.  0.
        -11    1    3    3    0    0 -0.14475008491E+02  0.39554778902E+02  0.16283026880E+02  0.45157982345E+02  0.51100000000E-03 0.  1.
         23    2    1    0    0    0  0.20484362596E+02  0.11786470825E+02  0.24946416067E+02  0.90636448378E+02  0.83869613655E+02 0.  0.
         11    1    3    3    0    0  0.34959371087E+02 -0.27768308078E+02  0.86633891867E+01  0.45478466033E+02  0.51100000000E-03 0. -1.
         22    1    1    0    0    0 -0.20484362596E+02 -0.11786470825E+02 -0.24946416067E+02  0.34363551622E+02  0.00000000000E+00 0. -1.
</event>
<event>
 5    1  0.1096978E-009  0.9118800E+02  0.7818608E-02  0.1130116E+00
         25   -1    0    0    0    0  0.00000000000E+00  0.00000000000E+00  0.99999998245E-14  0.12500000000E+03  0.12500000000E+03 0.  0.
        -11    1    3    3    0    0  0.40228842282E+02  0.36351895692E+01  0.11314334591E+02  0.41947449530E+02  0.51100000000E-03 0.  1.
         23    2    1    0    0    0  0.36790229284E+01 -0.26750954482E+02 -0.12653406670E+02  0.95179579551E+02  0.90387470856E+02 0.  0.
         11    1    3    3    0    0 -0.36549819354E+02 -0.30386144052E+02 -0.23967741261E+02  0.53232130021E+02  0.51100000000E-03 0. -1.
         22    1    1    0    0    0 -0.36790229284E+01  0.26750954482E+02  0.12653406670E+02  0.29820420449E+02  0.00000000000E+00 0. -1.
</event>
<event>
 5    1  0.1096978E-009  0.9118800E+02  0.7818608E-02  0.1130116E+00
         25   -1    0    0    0    0  0.00000000000E+00  0.00000000000E+00  0.99999998245E-14  0.12500000000E+03  0.12500000000E+03 0.  0.
        -11    1    3    3    0    0 -0.66681790639E+00  0.33715937755E+02  0.18470217704E+02  0.38449421934E+02  0.51100000000E-03 0.  1.
         23    2    1    0    0    0  0.28985949476E+02 -0.53707979223E+01 -0.83465756808E+01  0.94361852815E+02  0.89249443717E+02 0.  0.
         11    1    3    3    0    0  0.29652767382E+02 -0.39086735677E+02 -0.26816793385E+02  0.55912430881E+02  0.51100000000E-03 0. -1.
         22    1    1    0    0    0 -0.28985949476E+02  0.53707979223E+01  0.83465756808E+01  0.30638147185E+02  0.00000000000E+00 0. -1.
</event>
<event>
 5    1  0.1096978E-009  0.9118800E+02  0.7818608E-02  0.1130116E+00
         25   -1    0    0    0    0  0.00000000000E+00  0.00000000000E+00  0.99999998245E-14  0.12500000000E+03  0.12500000000E+03 0.  0.
        -11    1    3    3    0    0  0.28304146682E+02  0.20783442237E+02 -0.11071681000E+02  0.36819265487E+02  0.51100000000E-03 0.  1.
         23    2    1    0    0    0 -0.24956467844E+02 -0.73466272172E+01  0.33923209078E+01  0.98764412340E+02  0.95216086272E+02 0.  0.
         11    1    3    3    0    0 -0.53260614526E+02 -0.28130069454E+02  0.14464001908E+02  0.61945146853E+02  0.51100000000E-03 0. -1.
         22    1    1    0    0    0  0.24956467844E+02  0.73466272172E+01 -0.33923209078E+01  0.26235587660E+02  0.00000000000E+00 0. -1.
</event>
<event>
 5    1  0.1096978E-009  0.9118800E+02  0.7818608E-02  0.1130116E+00
         25   -1    0    0    0    0  0.00000000000E+00  0.00000000000E+00  0.99999998245E-14  0.12500000000E+03  0.12500000000E+03 0.  0.
        -11    1    3    3    0    0 -0.41818475028E+02 -0.24999662382E+02  0.28594943727E+01  0.48805170640E+02  0.51100000000E-03 0.  1.
         23    2    1    0    0    0  0.85387766934E+01 -0.21634553764E+02 -0.79516026141E+01  0.10041967030E+03  0.97364868281E+02 0.  0.
         11    1    3    3    0    0  0.50357251722E+02  0.33651086180E+01 -0.10811096987E+02  0.51614499661E+02  0.51100000000E-03 0. -1.
         22    1    1    0    0    0 -0.85387766934E+01  0.21634553764E+02  0.79516026141E+01  0.24580329699E+02  0.00000000000E+00 0.  1.
</event>
<event>
 5    1  0.1096978E-009  0.9118800E+02  0.7818608E-02  0.1130116E+00
         25   -1    0    0    0    0  0.00000000000E+00  0.00000000000E+00  0.99999998245E-14  0.12500000000E+03  0.12500000000E+03 0.  0.
        -11    1    3    3    0    0  0.52696448567E+02 -0.50074573569E+00  0.33256694760E+02  0.62315120031E+02  0.51100000000E-03 0.  1.
         23    2    1    0    0    0  0.26194941504E+02  0.15616613315E+01  0.19916456290E+02  0.92056427370E+02  0.85959914160E+02 0.  0.
         11    1    3    3    0    0 -0.26501507063E+02  0.20624070672E+01 -0.13340238470E+02  0.29741307339E+02  0.51100000000E-03 0. -1.
         22    1    1    0    0    0 -0.26194941504E+02 -0.15616613315E+01 -0.19916456290E+02  0.32943572630E+02  0.00000000000E+00 0.  1.
</event>
<event>
 5    1  0.1096978E-009  0.9118800E+02  0.7818608E-02  0.1130116E+00
         25   -1    0    0    0    0  0.00000000000E+00  0.00000000000E+00  0.99999998245E-14  0.12500000000E+03  0.12500000000E+03 0.  0.
        -11    1    3    3    0    0  0.35215728289E+02 -0.13852387710E+01  0.48330893114E+01  0.35572814872E+02  0.51100000000E-03 0.  1.
         23    2    1    0    0    0 -0.24741443364E+02 -0.13292573199E+02 -0.25902858451E+00  0.96912660899E+02  0.92753249133E+02 0.  0.
         11    1    3    3    0    0 -0.59957171652E+02 -0.11907334428E+02 -0.50921178959E+01  0.61339846027E+02  0.51100000000E-03 0. -1.
         22    1    1    0    0    0  0.24741443364E+02  0.13292573199E+02  0.25902858451E+00  0.28087339101E+02  0.00000000000E+00 0. -1.
</event>
<event>
 5    1  0.1096978E-009  0.9118800E+02  0.7818608E-02  0.1130116E+00
         25   -1    0    0    0    0  0.00000000000E+00  0.00000000000E+00  0.99999998245E-14  0.12500000000E+03  0.12500000000E+03 0.  0.
        -11    1    3    3    0    0 -0.27851225875E+02 -0.45879639921E+02 -0.10423065941E+02  0.54674239326E+02  0.51100000000E-03 0.  1.
         23    2    1    0    0    0 -0.25519026588E+02 -0.94056876541E+01 -0.18503428343E+02  0.92105250591E+02  0.86030881942E+02 0.  0.
         11    1    3    3    0    0  0.23321992867E+01  0.36473952267E+02 -0.80803624017E+01  0.37431011265E+02  0.51100000000E-03 0. -1.
         22    1    1    0    0    0  0.25519026588E+02  0.94056876541E+01  0.18503428343E+02  0.32894749409E+02  0.00000000000E+00 0.  1.
</event>
<event>
 5    1  0.1096978E-009  0.9118800E+02  0.7818608E-02  0.1130116E+00
         25   -1    0    0    0    0  0.00000000000E+00  0.00000000000E+00  0.99999998245E-14  0.12500000000E+03  0.12500000000E+03 0.  0.
        -11    1    3    3    0    0 -0.24197077012E+02 -0.30356508647E+02 -0.38583583927E+02  0.54733071374E+02  0.51100000000E-03 0.  1.
         23    2    1    0    0    0  0.90328216223E+01 -0.13048337944E+02 -0.26519504308E+02  0.94094739958E+02  0.88874546353E+02 0.  0.
         11    1    3    3    0    0  0.33229898634E+02  0.17308170702E+02  0.12064079620E+02  0.39361668583E+02  0.51100000000E-03 0. -1.
         22    1    1    0    0    0 -0.90328216223E+01  0.13048337944E+02  0.26519504308E+02  0.30905260042E+02  0.00000000000E+00 0.  1.
</event>
<event>
 5    1  0.1096978E-009  0.9118800E+02  0.7818608E-02  0.1130116E+00
         25   -1    0    0    0    0  0.00000000000E+00  0.00000000000E+00  0.99999998245E-14  0.12500000000E+03  0.12500000000E+03 0.  0.
        -11    1    3    3    0    0  0.33864064149E+02  0.50746471696E+02 -0.13129178614E+02  0.62404763934E+02  0.51100000000E-03 0.  1.
         23    2    1    0    0    0  0.15424948673E+02  0.25262123325E+02 -0.41900769909E+01  0.95105842349E+02  0.90285439508E+02 0.  0.
         11    1    3    3    0    0 -0.18439115476E+02 -0.25484348371E+02  0.89391016228E+01  0.32701078415E+02  0.51100000000E-03 0. -1.
         22    1    1    0    0    0 -0.15424948673E+02 -0.25262123325E+02  0.41900769909E+01  0.29894157651E+02  0.00000000000E+00 0.  1.
</event>
<event>
 5    1  0.1096978E-009  0.9118800E+02  0.7818608E-02  0.1130116E+00
         25   -1    0    0    0    0  0.00000000000E+00  0.00000000000E+00  0.99999998245E-14  0.12500000000E+03  0.12500000000E+03 0.  0.
        -11    1    3    3    0    0 -0.27687408037E+02 -0.85560652580E+01  0.26742606588E+02  0.39433054965E+02  0.51100000000E-03 0.  1.
         23    2    1    0    0    0  0.87917805929E+01  0.28067430618E+02  0.70009494170E+01  0.94766089234E+02  0.89813820253E+02 0.  0.
         11    1    3    3    0    0  0.36479188629E+02  0.36623495876E+02 -0.19741657171E+02  0.55333034269E+02  0.51100000000E-03 0. -1.
         22    1    1    0    0    0 -0.87917805929E+01 -0.28067430618E+02 -0.70009494170E+01  0.30233910766E+02  0.00000000000E+00 0. -1.
</event>
<event>
 5    1  0.1096978E-009  0.9118800E+02  0.7818608E-02  0.1130116E+00
         25   -1    0    0    0    0  0.00000000000E+00  0.00000000000E+00  0.99999998245E-14  0.12500000000E+03  0.12500000000E+03 0.  0.
        -11    1    3    3    0    0 -0.10627629514E+01  0.53057020031E+01  0.24668196403E+02  0.25254699620E+02  0.51100000000E-03 0.  1.
         23    2    1    0    0    0 -0.27424179608E+02  0.39148757090E+02 -0.42851851153E+01  0.77009650759E+02  0.60228005858E+02 0.  0.
         11    1    3    3    0    0 -0.26361416657E+02  0.33843055087E+02 -0.28953381519E+02  0.51754951139E+02  0.51100000000E-03 0. -1.
         22    1    1    0    0    0  0.27424179608E+02 -0.39148757090E+02  0.42851851153E+01  0.47990349241E+02  0.00000000000E+00 0. -1.
</event>
<event>
 5    1  0.1096978E-009  0.9118800E+02  0.7818608E-02  0.1130116E+00
         25   -1    0    0    0    0  0.00000000000E+00  0.00000000000E+00  0.99999998245E-14  0.12500000000E+03  0.12500000000E+03 0.  0.
        -11    1    3    3    0    0  0.30173755091E+02  0.48696809493E+02 -0.84296317247E-01  0.57287362107E+02  0.51100000000E-03 0.  1.
         23    2    1    0    0    0 -0.23171537113E+01  0.29220751852E+02  0.41134120458E+01  0.95400309144E+02  0.90692211827E+02 0.  0.
         11    1    3    3    0    0 -0.32490908802E+02 -0.19476057641E+02  0.41977083630E+01  0.38112947037E+02  0.51100000000E-03 0. -1.
         22    1    1    0    0    0  0.23171537113E+01 -0.29220751852E+02 -0.41134120458E+01  0.29599690856E+02  0.00000000000E+00 0.  1.
</event>
<event>
 5    1  0.1096978E-009  0.9118800E+02  0.7818608E-02  0.1130116E+00
         25   -1    0    0    0    0  0.00000000000E+00  0.00000000000E+00  0.99999998245E-14  0.12500000000E+03  0.12500000000E+03 0.  0.
        -11    1    3    3    0    0 -0.25964532977E+02 -0.21754539517E+02  0.21291779252E+02  0.40009459210E+02  0.51100000000E-03 0.  1.
         23    2    1    0    0    0  0.81775394762E+01  0.22393977131E+02  0.16462191391E+02  0.96028184229E+02  0.91553514719E+02 0.  0.
         11    1    3    3    0    0  0.34142072453E+02  0.44148516648E+02 -0.48295878609E+01  0.56018725019E+02  0.51100000000E-03 0. -1.
         22    1    1    0    0    0 -0.81775394762E+01 -0.22393977131E+02 -0.16462191391E+02  0.28971815771E+02  0.00000000000E+00 0. -1.
</event>
<event>
 5    1  0.1096978E-009  0.9118800E+02  0.7818608E-02  0.1130116E+00
         25   -1    0    0    0    0  0.00000000000E+00  0.00000000000E+00  0.99999998245E-14  0.12500000000E+03  0.12500000000E+03 0.  0.
        -11    1    3    3    0    0 -0.52023631038E+02 -0.10635379986E+02 -0.15539948965E+02  0.55326842562E+02  0.51100000000E-03 0.  1.
         23    2    1    0    0    0 -0.22429088175E+02  0.10763508406E+02  0.81066868707E+01  0.98834460037E+02  0.95308000761E+02 0.  0.
         11    1    3    3    0    0  0.29594542863E+02  0.21398888392E+02  0.23646635835E+02  0.43507617474E+02  0.51100000000E-03 0. -1.
         22    1    1    0    0    0  0.22429088175E+02 -0.10763508406E+02 -0.81066868707E+01  0.26165539963E+02  0.00000000000E+00 0.  1.
</event>
<event>
 5    1  0.1096978E-009  0.9118800E+02  0.7818608E-02  0.1130116E+00
         25   -1    0    0    0    0  0.00000000000E+00  0.00000000000E+00  0.99999998245E-14  0.12500000000E+03  0.12500000000E+03 0.  0.
        -11    1    3    3    0    0 -0.12975003685E+02 -0.34769689676E+02 -0.13678293756E+02  0.39552215629E+02  0.51100000000E-03 0. -1.
         23    2    1    0    0    0 -0.21990738020E+02  0.12997529966E+02  0.14386645870E+02  0.95682702661E+02  0.91080599829E+02 0.  0.
         11    1    3    3    0    0 -0.90157343351E+01  0.47767219643E+02  0.28064939626E+02  0.56130487032E+02  0.51100000000E-03 0.  1.
         22    1    1    0    0    0  0.21990738020E+02 -0.12997529966E+02 -0.14386645870E+02  0.29317297339E+02  0.00000000000E+00 0.  1.
</event>
<event>
 5    1  0.1096978E-009  0.9118800E+02  0.7818608E-02  0.1130116E+00
         25   -1    0    0    0    0  0.00000000000E+00  0.00000000000E+00  0.99999998245E-14  0.12500000000E+03  0.12500000000E+03 0.  0.
        -11    1    3    3    0    0 -0.18876571026E+02 -0.13372580734E+02  0.39414428255E+02  0.45701728678E+02  0.51100000000E-03 0. -1.
         23    2    1    0    0    0  0.12597248811E+02  0.19400806652E+02  0.16460879819E+02  0.96609111659E+02  0.92343261340E+02 0.  0.
         11    1    3    3    0    0  0.31473819838E+02  0.32773387386E+02 -0.22953548436E+02  0.50907382981E+02  0.51100000000E-03 0.  1.
         22    1    1    0    0    0 -0.12597248811E+02 -0.19400806652E+02 -0.16460879819E+02  0.28390888341E+02  0.00000000000E+00 0. -1.
</event>
<event>
 5    1  0.1096978E-009  0.9118800E+02  0.7818608E-02  0.1130116E+00
         25   -1    0    0    0    0  0.00000000000E+00  0.00000000000E+00  0.99999998245E-14  0.12500000000E+03  0.12500000000E+03 0.  0.
        -11    1    3    3    0    0 -0.30438004585E+01 -0.33749765652E+01  0.61059921302E+02  0.61228826363E+02  0.51100000000E-03 0.  1.
         23    2    1    0    0    0  0.35650810823E+01 -0.87886906233E+01  0.25709625006E+02  0.97596793912E+02  0.93670691670E+02 0.  0.
         11    1    3    3    0    0  0.66088815408E+01 -0.54137140581E+01 -0.35350296297E+02  0.36367967549E+02  0.51100000000E-03 0. -1.
         22    1    1    0    0    0 -0.35650810823E+01  0.87886906233E+01 -0.25709625006E+02  0.27403206088E+02  0.00000000000E+00 0.  1.
</event>
<event>
 5    1  0.1096978E-009  0.9118800E+02  0.7818608E-02  0.1130116E+00
         25   -1    0    0    0    0  0.00000000000E+00  0.00000000000E+00  0.99999998245E-14  0.12500000000E+03  0.12500000000E+03 0.  0.
        -11    1    3    3    0    0  0.72240006177E+00 -0.38647138840E+02 -0.40830441520E+01  0.38868939427E+02  0.51100000000E-03 0. -1.
         23    2    1    0    0    0  0.30457463245E+02  0.50984735407E+01  0.79430873708E+01  0.93113574412E+02  0.87483676209E+02 0.  0.
         11    1    3    3    0    0  0.29735063183E+02  0.43745612381E+02  0.12026131523E+02  0.54244634986E+02  0.51100000000E-03 0.  1.
         22    1    1    0    0    0 -0.30457463245E+02 -0.50984735407E+01 -0.79430873708E+01  0.31886425588E+02  0.00000000000E+00 0.  1.
</event>
<event>
 5    1  0.1096978E-009  0.9118800E+02  0.7818608E-02  0.1130116E+00
         25   -1    0    0    0    0  0.00000000000E+00  0.00000000000E+00  0.99999998245E-14  0.12500000000E+03  0.12500000000E+03 0.  0.
        -11    1    3    3    0    0 -0.29043622709E+02 -0.18807330265E+00 -0.30491507218E+02  0.42110561672E+02  0.51100000000E-03 0.  1.
         23    2    1    0    0    0 -0.62442369131E+01  0.26737981782E+02  0.99645920134E+01  0.95790356757E+02  0.91228225836E+02 0.  0.
         11    1    3    3    0    0  0.22799385796E+02  0.26926055084E+02  0.40456099232E+02  0.53679795085E+02  0.51100000000E-03 0. -1.
         22    1    1    0    0    0  0.62442369131E+01 -0.26737981782E+02 -0.99645920134E+01  0.29209643243E+02  0.00000000000E+00 0.  1.
</event>
<event>
 5    1  0.1096978E-009  0.9118800E+02  0.7818608E-02  0.1130116E+00
         25   -1    0    0    0    0  0.00000000000E+00  0.00000000000E+00  0.99999998245E-14  0.12500000000E+03  0.12500000000E+03 0.  0.
        -11    1    3    3    0    0  0.16702737877E+02  0.46896157011E+02 -0.10150031893E+02  0.50806044352E+02  0.51100000000E-03 0.  1.
         23    2    1    0    0    0 -0.19431483998E+02  0.15167659857E+02  0.15660351890E+01  0.10029994044E+03  0.97211033894E+02 0.  0.
         11    1    3    3    0    0 -0.36134221875E+02 -0.31728497154E+02  0.11716067082E+02  0.49493896092E+02  0.51100000000E-03 0. -1.
         22    1    1    0    0    0  0.19431483998E+02 -0.15167659857E+02 -0.15660351890E+01  0.24700059557E+02  0.00000000000E+00 0.  1.
</event>
<event>
 5    1  0.1096978E-009  0.9118800E+02  0.7818608E-02  0.1130116E+00
         25   -1    0    0    0    0  0.00000000000E+00  0.00000000000E+00  0.99999998245E-14  0.12500000000E+03  0.12500000000E+03 0.  0.
        -11    1    3    3    0    0 -0.12258039709E+02 -0.52471269580E+02 -0.19904589108E+02  0.57442896312E+02  0.51100000000E-03 0.  1.
         23    2    1    0    0    0 -0.15672999806E+02 -0.16356914427E+02 -0.21519818784E+02  0.93754293528E+02  0.88394419405E+02 0.  0.
         11    1    3    3    0    0 -0.34149600965E+01  0.36114355153E+02 -0.16152296760E+01  0.36311397216E+02  0.51100000000E-03 0. -1.
         22    1    1    0    0    0  0.15672999806E+02  0.16356914427E+02  0.21519818784E+02  0.31245706472E+02  0.00000000000E+00 0.  1.
</event>
<event>
 5    1  0.1096978E-009  0.9118800E+02  0.7818608E-02  0.1130116E+00
         25   -1    0    0    0    0  0.00000000000E+00  0.00000000000E+00  0.99999998245E-14  0.12500000000E+03  0.12500000000E+03 0.  0.
        -11    1    3    3    0    0  0.64001655438E+01  0.35551559736E+02 -0.14130844163E+01  0.36150689157E+02  0.51100000000E-03 0.  1.
         23    2    1    0    0    0 -0.41230885310E+01 -0.97377421341E+01 -0.31661110990E+02  0.91619625077E+02  0.85322366758E+02 0.  0.
         11    1    3    3    0    0 -0.10523254075E+02 -0.45289301870E+02 -0.30248026574E+02  0.55468935920E+02  0.51100000000E-03 0. -1.
         22    1    1    0    0    0  0.41230885310E+01  0.97377421341E+01  0.31661110990E+02  0.33380374923E+02  0.00000000000E+00 0. -1.
</event>
<event>
 5    1  0.1096978E-009  0.9118800E+02  0.7818608E-02  0.1130116E+00
         25   -1    0    0    0    0  0.00000000000E+00  0.00000000000E+00  0.99999998245E-14  0.12500000000E+03  0.12500000000E+03 0.  0.
        -11    1    3    3    0    0  0.34282403717E+02  0.13586654829E+02  0.59249827166E+01  0.37349508893E+02  0.51100000000E-03 0.  1.
         23    2    1    0    0    0 -0.19506735462E+02  0.32679262878E+01 -0.19044781727E+02  0.97542837335E+02  0.93598660961E+02 0.  0.
         11    1    3    3    0    0 -0.53789139179E+02 -0.10318728541E+02 -0.24969764444E+02  0.60193328442E+02  0.51100000000E-03 0. -1.
         22    1    1    0    0    0  0.19506735462E+02 -0.32679262878E+01  0.19044781727E+02  0.27457162665E+02  0.00000000000E+00 0. -1.
</event>
<event>
 5    1  0.1096978E-009  0.9118800E+02  0.7818608E-02  0.1130116E+00
         25   -1    0    0    0    0  0.00000000000E+00  0.00000000000E+00  0.99999998245E-14  0.12500000000E+03  0.12500000000E+03 0.  0.
        -11    1    3    3    0    0  0.44517295807E+02 -0.30017138700E+02 -0.24423650464E+02  0.58985870715E+02  0.51100000000E-03 0.  1.
         23    2    1    0    0    0  0.93537345682E+01 -0.23643205467E+02 -0.12564213536E+02  0.96638882658E+02  0.92383551915E+02 0.  0.
         11    1    3    3    0    0 -0.35163561239E+02  0.63739332330E+01  0.11859436929E+02  0.37653011943E+02  0.51100000000E-03 0. -1.
         22    1    1    0    0    0 -0.93537345682E+01  0.23643205467E+02  0.12564213536E+02  0.28361117342E+02  0.00000000000E+00 0.  1.
</event>
<event>
 5    1  0.1096978E-009  0.9118800E+02  0.7818608E-02  0.1130116E+00
         25   -1    0    0    0    0  0.00000000000E+00  0.00000000000E+00  0.99999998245E-14  0.12500000000E+03  0.12500000000E+03 0.  0.
        -11    1    3    3    0    0  0.23164109113E+02 -0.35639442827E+02 -0.19340870251E+01  0.42549812325E+02  0.51100000000E-03 0. -1.
         23    2    1    0    0    0  0.15103285000E+02  0.11406549958E+02  0.22027422426E+02  0.95958203594E+02  0.91457918731E+02 0.  0.
         11    1    3    3    0    0 -0.80608241136E+01  0.47045992785E+02  0.23961509451E+02  0.53408391269E+02  0.51100000000E-03 0.  1.
         22    1    1    0    0    0 -0.15103285000E+02 -0.11406549958E+02 -0.22027422426E+02  0.29041796406E+02  0.00000000000E+00 0.  1.
</event>
<event>
 5    1  0.1096978E-009  0.9118800E+02  0.7818608E-02  0.1130116E+00
         25   -1    0    0    0    0  0.00000000000E+00  0.00000000000E+00  0.99999998245E-14  0.12500000000E+03  0.12500000000E+03 0.  0.
        -11    1    3    3    0    0  0.10111517708E+02  0.27026782514E+02 -0.83454419904E+00  0.28868429602E+02  0.51100000000E-03 0. -1.
         23    2    1    0    0    0  0.71725741986E+01 -0.29275546574E+02  0.19835912790E+02  0.88917221780E+02  0.81266877909E+02 0.  0.
         11    1    3    3    0    0 -0.29389435096E+01 -0.56302329088E+02  0.20670456989E+02  0.60048792178E+02  0.51100000000E-03 0.  1.
         22    1    1    0    0    0 -0.71725741986E+01  0.29275546574E+02 -0.19835912790E+02  0.36082778220E+02  0.00000000000E+00 0.  1.
</event>
<event>
 5    1  0.1096978E-009  0.9118800E+02  0.7818608E-02  0.1130116E+00
         25   -1    0    0    0    0  0.00000000000E+00  0.00000000000E+00  0.99999998245E-14  0.12500000000E+03  0.12500000000E+03 0.  0.
        -11    1    3    3    0    0 -0.65906216406E+01  0.13407594324E+01 -0.42073215947E+02  0.42607387034E+02  0.51100000000E-03 0. -1.
         23    2    1    0    0    0  0.26143311167E+02  0.52175219146E+01  0.26988744950E+01  0.98204866538E+02  0.94478657032E+02 0.  0.
         11    1    3    3    0    0  0.32733932807E+02  0.38767624823E+01  0.44772090442E+02  0.55597479504E+02  0.51100000000E-03 0.  1.
         22    1    1    0    0    0 -0.26143311167E+02 -0.52175219146E+01 -0.26988744950E+01  0.26795133462E+02  0.00000000000E+00 0.  1.
</event>
<event>
 5    1  0.1096978E-009  0.9118800E+02  0.7818608E-02  0.1130116E+00
         25   -1    0    0    0    0  0.00000000000E+00  0.00000000000E+00  0.99999998245E-14  0.12500000000E+03  0.12500000000E+03 0.  0.
        -11    1    3    3    0    0 -0.86537093875E+01  0.25814788053E+02 -0.29862285171E+02  0.40410964407E+02  0.51100000000E-03 0. -1.
         23    2    1    0    0    0  0.19755180813E+02 -0.18110578964E+02 -0.11233515105E+02  0.95940541971E+02  0.91433776542E+02 0.  0.
         11    1    3    3    0    0  0.28408890201E+02 -0.43925367017E+02  0.18628770066E+02  0.55529577564E+02  0.51100000000E-03 0.  1.
         22    1    1    0    0    0 -0.19755180813E+02  0.18110578964E+02  0.11233515105E+02  0.29059458029E+02  0.00000000000E+00 0.  1.
</event>
<event>
 5    1  0.1096978E-009  0.9118800E+02  0.7818608E-02  0.1130116E+00
         25   -1    0    0    0    0  0.00000000000E+00  0.00000000000E+00  0.99999998245E-14  0.12500000000E+03  0.12500000000E+03 0.  0.
        -11    1    3    3    0    0 -0.20969202961E+02  0.15730145359E+01 -0.51178513957E+02  0.55330119633E+02  0.51100000000E-03 0.  1.
         23    2    1    0    0    0  0.10157912095E+02 -0.68456613011E+01 -0.26060816719E+02  0.96203951229E+02  0.91793179525E+02 0.  0.
         11    1    3    3    0    0  0.31127115056E+02 -0.84186758371E+01  0.25117697238E+02  0.40873831596E+02  0.51100000000E-03 0. -1.
         22    1    1    0    0    0 -0.10157912095E+02  0.68456613011E+01  0.26060816719E+02  0.28796048771E+02  0.00000000000E+00 0.  1.
</event>
<event>
 5    1  0.1096978E-009  0.9118800E+02  0.7818608E-02  0.1130116E+00
         25   -1    0    0    0    0  0.00000000000E+00  0.00000000000E+00  0.99999998245E-14  0.12500000000E+03  0.12500000000E+03 0.  0.
        -11    1    3    3    0    0 -0.13093894983E+02 -0.31602068797E+02 -0.41184629518E+02  0.53537972943E+02  0.51100000000E-03 0.  1.
         23    2    1    0    0    0 -0.77827273243E+01 -0.32500511768E+02 -0.37355119386E+01  0.91372508877E+02  0.84959562260E+02 0.  0.
         11    1    3    3    0    0  0.53111676582E+01 -0.89844297102E+00  0.37449117579E+02  0.37834535935E+02  0.51100000000E-03 0. -1.
         22    1    1    0    0    0  0.77827273243E+01  0.32500511768E+02  0.37355119386E+01  0.33627491123E+02  0.00000000000E+00 0.  1.
</event>
<event>
 5    1  0.1096978E-009  0.9118800E+02  0.7818608E-02  0.1130116E+00
         25   -1    0    0    0    0  0.00000000000E+00  0.00000000000E+00  0.99999998245E-14  0.12500000000E+03  0.12500000000E+03 0.  0.
        -11    1    3    3    0    0  0.35012486456E+02 -0.23324203622E+02  0.39898823849E+02  0.57981107503E+02  0.51100000000E-03 0.  1.
         23    2    1    0    0    0  0.16366987932E+02 -0.24447926491E+02  0.87426150140E+01  0.94307774259E+02  0.89173670804E+02 0.  0.
         11    1    3    3    0    0 -0.18645498524E+02 -0.11237228684E+01 -0.31156208835E+02  0.36326666755E+02  0.51100000000E-03 0. -1.
         22    1    1    0    0    0 -0.16366987932E+02  0.24447926491E+02 -0.87426150140E+01  0.30692225741E+02  0.00000000000E+00 0.  1.
</event>
<event>
 5    1  0.1096978E-009  0.9118800E+02  0.7818608E-02  0.1130116E+00
         25   -1    0    0    0    0  0.00000000000E+00  0.00000000000E+00  0.99999998245E-14  0.12500000000E+03  0.12500000000E+03 0.  0.
        -11    1    3    3    0    0  0.14371026780E+02  0.37479783428E+02  0.25278973788E+00  0.40141306400E+02  0.51100000000E-03 0.  1.
         23    2    1    0    0    0 -0.16415723819E+02 -0.18002597147E+01  0.24363097856E+02  0.95567408189E+02  0.90922230765E+02 0.  0.
         11    1    3    3    0    0 -0.30786750599E+02 -0.39280043143E+02  0.24110308118E+02  0.55426101790E+02  0.51100000000E-03 0. -1.
         22    1    1    0    0    0  0.16415723819E+02  0.18002597147E+01 -0.24363097856E+02  0.29432591811E+02  0.00000000000E+00 0. -1.
</event>
<event>
 5    1  0.1096978E-009  0.9118800E+02  0.7818608E-02  0.1130116E+00
         25   -1    0    0    0    0  0.00000000000E+00  0.00000000000E+00  0.99999998245E-14  0.12500000000E+03  0.12500000000E+03 0.  0.
        -11    1    3    3    0    0  0.16642862908E+02  0.91857030588E+01 -0.37563907890E+02  0.42099990530E+02  0.51100000000E-03 0.  1.
         23    2    1    0    0    0  0.15719958200E+02  0.13048907495E+02  0.17979389572E+02  0.97785123149E+02  0.93921673683E+02 0.  0.
         11    1    3    3    0    0 -0.92290470817E+00  0.38632044365E+01  0.55543297462E+02  0.55685132619E+02  0.51100000000E-03 0. -1.
         22    1    1    0    0    0 -0.15719958200E+02 -0.13048907495E+02 -0.17979389572E+02  0.27214876851E+02  0.00000000000E+00 0. -1.
</event>
<event>
 5    1  0.1096978E-009  0.9118800E+02  0.7818608E-02  0.1130116E+00
         25   -1    0    0    0    0  0.00000000000E+00  0.00000000000E+00  0.99999998245E-14  0.12500000000E+03  0.12500000000E+03 0.  0.
        -11    1    3    3    0    0  0.61591805003E+01  0.46199554083E+01  0.52745806440E+02  0.53304780176E+02  0.51100000000E-03 0. -1.
         23    2    1    0    0    0 -0.82762031357E+01  0.21333013092E+02  0.13241993686E+02  0.98562462620E+02  0.94950595864E+02 0.  0.
         11    1    3    3    0    0 -0.14435383636E+02  0.16713057684E+02 -0.39503812753E+02  0.45257682444E+02  0.51100000000E-03 0.  1.
         22    1    1    0    0    0  0.82762031357E+01 -0.21333013092E+02 -0.13241993686E+02  0.26437537380E+02  0.00000000000E+00 0. -1.
</event>
<event>
 5    1  0.1096978E-009  0.9118800E+02  0.7818608E-02  0.1130116E+00
         25   -1    0    0    0    0  0.00000000000E+00  0.00000000000E+00  0.99999998245E-14  0.12500000000E+03  0.12500000000E+03 0.  0.
        -11    1    3    3    0    0  0.37551945684E+02  0.31183336716E+02 -0.38086986378E+02  0.61912580668E+02  0.51100000000E-03 0.  1.
         23    2    1    0    0    0  0.31999281563E+02  0.26495305657E+02 -0.26079010366E+02  0.75948292343E+02  0.57983386291E+02 0.  0.
         11    1    3    3    0    0 -0.55526641210E+01 -0.46880310589E+01  0.12007976012E+02  0.14035711675E+02  0.51100000000E-03 0. -1.
         22    1    1    0    0    0 -0.31999281563E+02 -0.26495305657E+02  0.26079010366E+02  0.49051707657E+02  0.00000000000E+00 0.  1.
</event>
<event>
 5    1  0.1096978E-009  0.9118800E+02  0.7818608E-02  0.1130116E+00
         25   -1    0    0    0    0  0.00000000000E+00  0.00000000000E+00  0.99999998245E-14  0.12500000000E+03  0.12500000000E+03 0.  0.
        -11    1    3    3    0    0 -0.10701754788E+02 -0.93248002266E+01  0.47792115396E+02  0.49855448540E+02  0.51100000000E-03 0. -1.
         23    2    1    0    0    0  0.20786002430E+02 -0.32051980098E+01  0.34537026954E+02  0.84563167506E+02  0.74268377366E+02 0.  0.
         11    1    3    3    0    0  0.31487757219E+02  0.61196022168E+01 -0.13255088442E+02  0.34707718966E+02  0.51100000000E-03 0.  1.
         22    1    1    0    0    0 -0.20786002430E+02  0.32051980098E+01 -0.34537026954E+02  0.40436832494E+02  0.00000000000E+00 0.  1.
</event>
<event>
 5    1  0.1096978E-009  0.9118800E+02  0.7818608E-02  0.1130116E+00
         25   -1    0    0    0    0  0.00000000000E+00  0.00000000000E+00  0.99999998245E-14  0.12500000000E+03  0.12500000000E+03 0.  0.
        -11    1    3    3    0    0 -0.27808393678E+02  0.14839470092E+01  0.20635798562E+02  0.34660424698E+02  0.51100000000E-03 0. -1.
         23    2    1    0    0    0  0.28568315313E+02 -0.75506604306E+01  0.14498751211E+02  0.92085339141E+02  0.86001946404E+02 0.  0.
         11    1    3    3    0    0  0.56376708992E+02 -0.90346074397E+01 -0.61370473517E+01  0.57424914443E+02  0.51100000000E-03 0.  1.
         22    1    1    0    0    0 -0.28568315313E+02  0.75506604306E+01 -0.14498751211E+02  0.32914660859E+02  0.00000000000E+00 0.  1.
</event>
<event>
 5    1  0.1096978E-009  0.9118800E+02  0.7818608E-02  0.1130116E+00
         25   -1    0    0    0    0  0.00000000000E+00  0.00000000000E+00  0.99999998245E-14  0.12500000000E+03  0.12500000000E+03 0.  0.
        -11    1    3    3    0    0  0.26947116720E+02  0.17319328853E+02 -0.15750172638E+02  0.35695576615E+02  0.51100000000E-03 0. -1.
         23    2    1    0    0    0 -0.51469389042E+01 -0.27514468860E+02  0.82326513050E+01  0.95822722467E+02  0.91272562234E+02 0.  0.
         11    1    3    3    0    0 -0.32094055625E+02 -0.44833797713E+02  0.23982823943E+02  0.60127145852E+02  0.51100000000E-03 0.  1.
         22    1    1    0    0    0  0.51469389042E+01  0.27514468860E+02 -0.82326513050E+01  0.29177277533E+02  0.00000000000E+00 0.  1.
</event>
<event>
 5    1  0.1096978E-009  0.9118800E+02  0.7818608E-02  0.1130116E+00
         25   -1    0    0    0    0  0.00000000000E+00  0.00000000000E+00  0.99999998245E-14  0.12500000000E+03  0.12500000000E+03 0.  0.
        -11    1    3    3    0    0 -0.10030827233E+02 -0.22163418632E+02 -0.40031228497E+01  0.24654809130E+02  0.51100000000E-03 0. -1.
         23    2    1    0    0    0 -0.32864981925E+02  0.27707069891E+02 -0.12672166186E+02  0.80185130205E+02  0.66492725551E+02 0.  0.
         11    1    3    3    0    0 -0.22834154693E+02  0.49870488523E+02 -0.86690433361E+01  0.55530321075E+02  0.51100000000E-03 0.  1.
         22    1    1    0    0    0  0.32864981925E+02 -0.27707069891E+02  0.12672166186E+02  0.44814869795E+02  0.00000000000E+00 0.  1.
</event>
<event>
 5    1  0.1096978E-009  0.9118800E+02  0.7818608E-02  0.1130116E+00
         25   -1    0    0    0    0  0.00000000000E+00  0.00000000000E+00  0.99999998245E-14  0.12500000000E+03  0.12500000000E+03 0.  0.
        -11    1    3    3    0    0  0.19944841797E+01  0.19110211652E+02 -0.49723045329E+02  0.53306279120E+02  0.51100000000E-03 0.  1.
         23    2    1    0    0    0  0.90261658526E+01  0.25973032531E+02 -0.77245005486E+01  0.96438872613E+02  0.92112529839E+02 0.  0.
         11    1    3    3    0    0  0.70316816728E+01  0.68628208791E+01  0.41998544780E+02  0.43132593494E+02  0.51100000000E-03 0. -1.
         22    1    1    0    0    0 -0.90261658526E+01 -0.25973032531E+02  0.77245005486E+01  0.28561127387E+02  0.00000000000E+00 0.  1.
</event>
<event>
 5    1  0.1096978E-009  0.9118800E+02  0.7818608E-02  0.1130116E+00
         25   -1    0    0    0    0  0.00000000000E+00  0.00000000000E+00  0.99999998245E-14  0.12500000000E+03  0.12500000000E+03 0.  0.
        -11    1    3    3    0    0 -0.47951628635E+02  0.21060154730E+02 -0.52252591670E+01  0.52632614790E+02  0.51100000000E-03 0. -1.
         23    2    1    0    0    0 -0.83955892408E+01  0.18759806280E+02 -0.21308085905E+02  0.95395088663E+02  0.90685016214E+02 0.  0.
         11    1    3    3    0    0  0.39556039394E+02 -0.23003484504E+01 -0.16082826738E+02  0.42762473873E+02  0.51100000000E-03 0.  1.
         22    1    1    0    0    0  0.83955892408E+01 -0.18759806280E+02  0.21308085905E+02  0.29604911337E+02  0.00000000000E+00 0.  1.
</event>
<event>
 5    1  0.1096978E-009  0.9118800E+02  0.7818608E-02  0.1130116E+00
         25   -1    0    0    0    0  0.00000000000E+00  0.00000000000E+00  0.99999998245E-14  0.12500000000E+03  0.12500000000E+03 0.  0.
        -11    1    3    3    0    0 -0.17995086640E+02  0.25092071763E+02  0.10792218576E+02  0.32709435804E+02  0.51100000000E-03 0. -1.
         23    2    1    0    0    0  0.13621631472E+02 -0.22772433024E+02 -0.13762534763E+02  0.95107862022E+02  0.90288235698E+02 0.  0.
         11    1    3    3    0    0  0.31616718112E+02 -0.47864504787E+02 -0.24554753339E+02  0.62398426218E+02  0.51100000000E-03 0.  1.
         22    1    1    0    0    0 -0.13621631472E+02  0.22772433024E+02  0.13762534763E+02  0.29892137978E+02  0.00000000000E+00 0.  1.
</event>
<event>
 5    1  0.1096978E-009  0.9118800E+02  0.7818608E-02  0.1130116E+00
         25   -1    0    0    0    0  0.00000000000E+00  0.00000000000E+00  0.99999998245E-14  0.12500000000E+03  0.12500000000E+03 0.  0.
        -11    1    3    3    0    0  0.53796788060E+01 -0.50901710446E+02  0.19595544642E+02  0.54807941400E+02  0.51100000000E-03 0.  1.
         23    2    1    0    0    0 -0.84895589997E+01 -0.25024984253E+02 -0.10233751640E+02  0.96661825720E+02  0.92414589920E+02 0.  0.
         11    1    3    3    0    0 -0.13869237806E+02  0.25876726193E+02 -0.29829296282E+02  0.41853884321E+02  0.51100000000E-03 0. -1.
         22    1    1    0    0    0  0.84895589997E+01  0.25024984253E+02  0.10233751640E+02  0.28338174280E+02  0.00000000000E+00 0.  1.
</event>
<event>
 5    1  0.1096978E-009  0.9118800E+02  0.7818608E-02  0.1130116E+00
         25   -1    0    0    0    0  0.00000000000E+00  0.00000000000E+00  0.99999998245E-14  0.12500000000E+03  0.12500000000E+03 0.  0.
        -11    1    3    3    0    0  0.58512609523E+02 -0.29529691931E+01  0.17105040002E+02  0.61033006594E+02  0.51100000000E-03 0.  1.
         23    2    1    0    0    0  0.25487584983E+02 -0.10749525421E+02  0.88719967096E+01  0.95950359543E+02  0.91447197255E+02 0.  0.
         11    1    3    3    0    0 -0.33025024539E+02 -0.77965562279E+01 -0.82330432923E+01  0.34917352949E+02  0.51100000000E-03 0. -1.
         22    1    1    0    0    0 -0.25487584983E+02  0.10749525421E+02 -0.88719967096E+01  0.29049640457E+02  0.00000000000E+00 0.  1.
</event>
<event>
 5    1  0.1096978E-009  0.9118800E+02  0.7818608E-02  0.1130116E+00
         25   -1    0    0    0    0  0.00000000000E+00  0.00000000000E+00  0.99999998245E-14  0.12500000000E+03  0.12500000000E+03 0.  0.
        -11    1    3    3    0    0 -0.33210029226E+02 -0.16257310243E+02  0.27322343380E+02  0.45975174013E+02  0.51100000000E-03 0. -1.
         23    2    1    0    0    0  0.17376657689E+02  0.56885859549E+01  0.21536961777E+01  0.10658949621E+03  0.10498749474E+03 0.  0.
         11    1    3    3    0    0  0.50586686915E+02  0.21945896197E+02 -0.25168647202E+02  0.60614322196E+02  0.51100000000E-03 0.  1.
         22    1    1    0    0    0 -0.17376657689E+02 -0.56885859549E+01 -0.21536961777E+01  0.18410503791E+02  0.00000000000E+00 0.  1.
</event>
<event>
 5    1  0.1096978E-009  0.9118800E+02  0.7818608E-02  0.1130116E+00
         25   -1    0    0    0    0  0.00000000000E+00  0.00000000000E+00  0.99999998245E-14  0.12500000000E+03  0.12500000000E+03 0.  0.
        -11    1    3    3    0    0 -0.32984510662E+02 -0.41665272204E+02  0.90018693984E+01  0.53898112253E+02  0.51100000000E-03 0. -1.
         23    2    1    0    0    0 -0.19113502317E+02 -0.21277623964E+02 -0.18578005427E+02  0.90894200816E+02  0.84252894336E+02 0.  0.
         11    1    3    3    0    0  0.13871008345E+02  0.20387648241E+02 -0.27579874825E+02  0.36996088563E+02  0.51100000000E-03 0.  1.
         22    1    1    0    0    0  0.19113502317E+02  0.21277623964E+02  0.18578005427E+02  0.34105799184E+02  0.00000000000E+00 0. -1.
</event>
<event>
 5    1  0.1096978E-009  0.9118800E+02  0.7818608E-02  0.1130116E+00
         25   -1    0    0    0    0  0.00000000000E+00  0.00000000000E+00  0.99999998245E-14  0.12500000000E+03  0.12500000000E+03 0.  0.
        -11    1    3    3    0    0 -0.33486958196E+02 -0.62649548224E+01  0.16563609724E+02  0.37881119249E+02  0.51100000000E-03 0.  1.
         23    2    1    0    0    0  0.17763381537E+01 -0.12659002551E+02 -0.27497203176E+02  0.94676710183E+02  0.89689339086E+02 0.  0.
         11    1    3    3    0    0  0.35263296350E+02 -0.63940477283E+01 -0.44060812901E+02  0.56795590934E+02  0.51100000000E-03 0. -1.
         22    1    1    0    0    0 -0.17763381537E+01  0.12659002551E+02  0.27497203176E+02  0.30323289817E+02  0.00000000000E+00 0.  1.
</event>
<event>
 5    1  0.1096978E-009  0.9118800E+02  0.7818608E-02  0.1130116E+00
         25   -1    0    0    0    0  0.00000000000E+00  0.00000000000E+00  0.99999998245E-14  0.12500000000E+03  0.12500000000E+03 0.  0.
        -11    1    3    3    0    0  0.11072805747E+02 -0.47785004314E+01  0.54150126109E+02  0.55476817243E+02  0.51100000000E-03 0.  1.
         23    2    1    0    0    0 -0.13218036499E+02  0.85831786407E+01  0.17193005308E+02  0.10167647377E+03  0.98965238552E+02 0.  0.
         11    1    3    3    0    0 -0.24290842247E+02  0.13361679072E+02 -0.36957120802E+02  0.46199656523E+02  0.51100000000E-03 0. -1.
         22    1    1    0    0    0  0.13218036499E+02 -0.85831786407E+01 -0.17193005308E+02  0.23323526234E+02  0.00000000000E+00 0.  1.
</event>
<event>
 5    1  0.1096978E-009  0.9118800E+02  0.7818608E-02  0.1130116E+00
         25   -1    0    0    0    0  0.00000000000E+00  0.00000000000E+00  0.99999998245E-14  0.12500000000E+03  0.12500000000E+03 0.  0.
        -11    1    3    3    0    0  0.49665753119E+02 -0.23506649753E+01 -0.21221375123E+02  0.54060701263E+02  0.51100000000E-03 0. -1.
         23    2    1    0    0    0  0.67767517550E+01  0.45472984904E+01 -0.25987165882E+02  0.97761514754E+02  0.93890248101E+02 0.  0.
         11    1    3    3    0    0 -0.42889001364E+02  0.68979634657E+01 -0.47657907590E+01  0.43700813491E+02  0.51100000000E-03 0.  1.
         22    1    1    0    0    0 -0.67767517550E+01 -0.45472984904E+01  0.25987165882E+02  0.27238485246E+02  0.00000000000E+00 0. -1.
</event>
<event>
 5    1  0.1096978E-009  0.9118800E+02  0.7818608E-02  0.1130116E+00
         25   -1    0    0    0    0  0.00000000000E+00  0.00000000000E+00  0.99999998245E-14  0.12500000000E+03  0.12500000000E+03 0.  0.
        -11    1    3    3    0    0 -0.54823564709E+02  0.25046537590E+01  0.20128377094E+02  0.58455522430E+02  0.51100000000E-03 0.  1.
         23    2    1    0    0    0 -0.24923749140E+02  0.57479615062E+00 -0.72441054838E+01  0.99038476045E+02  0.95575200817E+02 0.  0.
         11    1    3    3    0    0  0.29899815569E+02 -0.19298576084E+01 -0.27372482578E+02  0.40582953615E+02  0.51100000000E-03 0. -1.
         22    1    1    0    0    0  0.24923749140E+02 -0.57479615062E+00  0.72441054838E+01  0.25961523955E+02  0.00000000000E+00 0.  1.
</event>
<event>
 5    1  0.1096978E-009  0.9118800E+02  0.7818608E-02  0.1130116E+00
         25   -1    0    0    0    0  0.00000000000E+00  0.00000000000E+00  0.99999998245E-14  0.12500000000E+03  0.12500000000E+03 0.  0.
        -11    1    3    3    0    0  0.25603515376E+02 -0.23365314711E+02  0.64303648225E+01  0.35253758993E+02  0.51100000000E-03 0. -1.
         23    2    1    0    0    0 -0.26286719416E+02  0.91328445314E+01 -0.21965666937E+01  0.97085391420E+02  0.92985740063E+02 0.  0.
         11    1    3    3    0    0 -0.51890234793E+02  0.32498159242E+02 -0.86269315162E+01  0.61831632427E+02  0.51100000000E-03 0.  1.
         22    1    1    0    0    0  0.26286719416E+02 -0.91328445314E+01  0.21965666937E+01  0.27914608580E+02  0.00000000000E+00 0.  1.
</event>
<event>
 5    1  0.1096978E-009  0.9118800E+02  0.7818608E-02  0.1130116E+00
         25   -1    0    0    0    0  0.00000000000E+00  0.00000000000E+00  0.99999998245E-14  0.12500000000E+03  0.12500000000E+03 0.  0.
        -11    1    3    3    0    0  0.37669820557E+02 -0.28525776589E+02 -0.12994424927E+02  0.49006024020E+02  0.51100000000E-03 0.  1.
         23    2    1    0    0    0 -0.62559304865E+01 -0.14414424695E+02 -0.23884025152E+02  0.96410509571E+02  0.92074032130E+02 0.  0.
         11    1    3    3    0    0 -0.43925751044E+02  0.14111351894E+02 -0.10889600225E+02  0.47404485551E+02  0.51100000000E-03 0. -1.
         22    1    1    0    0    0  0.62559304865E+01  0.14414424695E+02  0.23884025152E+02  0.28589490429E+02  0.00000000000E+00 0.  1.
</event>
<event>
 5    1  0.1096978E-009  0.9118800E+02  0.7818608E-02  0.1130116E+00
         25   -1    0    0    0    0  0.00000000000E+00  0.00000000000E+00  0.99999998245E-14  0.12500000000E+03  0.12500000000E+03 0.  0.
        -11    1    3    3    0    0  0.18854504483E+02 -0.51099816484E+02 -0.21780238851E+02  0.58660569284E+02  0.51100000000E-03 0. -1.
         23    2    1    0    0    0  0.17859908799E+02 -0.11371797961E+02 -0.15185290306E+02  0.98944536603E+02  0.95452261108E+02 0.  0.
         11    1    3    3    0    0 -0.99459568449E+00  0.39728018524E+02  0.65949485445E+01  0.40283967319E+02  0.51100000000E-03 0.  1.
         22    1    1    0    0    0 -0.17859908799E+02  0.11371797961E+02  0.15185290306E+02  0.26055463397E+02  0.00000000000E+00 0. -1.
</event>
<event>
 5    1  0.1096978E-009  0.9118800E+02  0.7818608E-02  0.1130116E+00
         25   -1    0    0    0    0  0.00000000000E+00  0.00000000000E+00  0.99999998245E-14  0.12500000000E+03  0.12500000000E+03 0.  0.
        -11    1    3    3    0    0  0.38229394616E+02 -0.14277480480E+02 -0.14777883998E+02  0.43401830806E+02  0.51100000000E-03 0.  1.
         23    2    1    0    0    0 -0.12869830416E+02  0.15338157049E+02 -0.98995719195E+01  0.10266408451E+03  0.10020489573E+03 0.  0.
         11    1    3    3    0    0 -0.51099225032E+02  0.29615637529E+02  0.48783120789E+01  0.59262253704E+02  0.51100000000E-03 0. -1.
         22    1    1    0    0    0  0.12869830416E+02 -0.15338157049E+02  0.98995719195E+01  0.22335915490E+02  0.00000000000E+00 0. -1.
</event>
<event>
 5    1  0.1096978E-009  0.9118800E+02  0.7818608E-02  0.1130116E+00
         25   -1    0    0    0    0  0.00000000000E+00  0.00000000000E+00  0.99999998245E-14  0.12500000000E+03  0.12500000000E+03 0.  0.
        -11    1    3    3    0    0 -0.37850009814E+02  0.19321134591E+01  0.10872322327E+02  0.39427955798E+02  0.51100000000E-03 0.  1.
         23    2    1    0    0    0  0.17495547662E+01 -0.83615618143E+01 -0.27915373317E+02  0.95806769187E+02  0.91250711213E+02 0.  0.
         11    1    3    3    0    0  0.39599564581E+02 -0.10293675273E+02 -0.38787695644E+02  0.56378813390E+02  0.51100000000E-03 0. -1.
         22    1    1    0    0    0 -0.17495547662E+01  0.83615618143E+01  0.27915373317E+02  0.29193230813E+02  0.00000000000E+00 0. -1.
</event>
<event>
 5    1  0.1096978E-009  0.9118800E+02  0.7818608E-02  0.1130116E+00
         25   -1    0    0    0    0  0.00000000000E+00  0.00000000000E+00  0.99999998245E-14  0.12500000000E+03  0.12500000000E+03 0.  0.
        -11    1    3    3    0    0 -0.47935433239E+02  0.19363744939E+02  0.27511856918E+02  0.58563321706E+02  0.51100000000E-03 0.  1.
         23    2    1    0    0    0 -0.22532543121E+02 -0.67173275363E+01  0.15225341685E+02  0.96988412788E+02  0.92855280932E+02 0.  0.
         11    1    3    3    0    0  0.25402890118E+02 -0.26081072476E+02 -0.12286515233E+02  0.38425091082E+02  0.51100000000E-03 0. -1.
         22    1    1    0    0    0  0.22532543121E+02  0.67173275363E+01 -0.15225341685E+02  0.28011587212E+02  0.00000000000E+00 0.  1.
</event>
<event>
 5    1  0.1096978E-009  0.9118800E+02  0.7818608E-02  0.1130116E+00
         25   -1    0    0    0    0  0.00000000000E+00  0.00000000000E+00  0.99999998245E-14  0.12500000000E+03  0.12500000000E+03 0.  0.
        -11    1    3    3    0    0 -0.13212081901E+02  0.36698184605E+02  0.47416633314E+02  0.61397499759E+02  0.51100000000E-03 0. -1.
         23    2    1    0    0    0 -0.14096307842E+02  0.15480623623E+02  0.20325263724E+02  0.95820007745E+02  0.91268844280E+02 0.  0.
         11    1    3    3    0    0 -0.88422594107E+00 -0.21217560982E+02 -0.27091369590E+02  0.34422507987E+02  0.51100000000E-03 0.  1.
         22    1    1    0    0    0  0.14096307842E+02 -0.15480623623E+02 -0.20325263724E+02  0.29179992255E+02  0.00000000000E+00 0. -1.
</event>
<event>
 5    1  0.1096978E-009  0.9118800E+02  0.7818608E-02  0.1130116E+00
         25   -1    0    0    0    0  0.00000000000E+00  0.00000000000E+00  0.99999998245E-14  0.12500000000E+03  0.12500000000E+03 0.  0.
        -11    1    3    3    0    0  0.93806617122E+01 -0.17449486717E+02 -0.25884273708E+02  0.32595659627E+02  0.51100000000E-03 0.  1.
         23    2    1    0    0    0 -0.10856609011E+02  0.11336857292E+02  0.25608753263E+02  0.94963380081E+02  0.90087984883E+02 0.  0.
         11    1    3    3    0    0 -0.20237270723E+02  0.28786344009E+02  0.51493026971E+02  0.62367720454E+02  0.51100000000E-03 0. -1.
         22    1    1    0    0    0  0.10856609011E+02 -0.11336857292E+02 -0.25608753263E+02  0.30036619919E+02  0.00000000000E+00 0. -1.
</event>
<event>
 5    1  0.1096978E-009  0.9118800E+02  0.7818608E-02  0.1130116E+00
         25   -1    0    0    0    0  0.00000000000E+00  0.00000000000E+00  0.99999998245E-14  0.12500000000E+03  0.12500000000E+03 0.  0.
        -11    1    3    3    0    0 -0.54072163129E+02  0.15556711225E+02  0.72363471118E+00  0.56270185152E+02  0.51100000000E-03 0.  1.
         23    2    1    0    0    0 -0.12718265064E+02  0.12440007752E+02  0.16591425431E+02  0.10067340022E+03  0.97690071423E+02 0.  0.
         11    1    3    3    0    0  0.41353898065E+02 -0.31167034728E+01  0.15867790720E+02  0.44403215067E+02  0.51100000000E-03 0. -1.
         22    1    1    0    0    0  0.12718265064E+02 -0.12440007752E+02 -0.16591425431E+02  0.24326599782E+02  0.00000000000E+00 0.  1.
</event>
<event>
 5    1  0.1096978E-009  0.9118800E+02  0.7818608E-02  0.1130116E+00
         25   -1    0    0    0    0  0.00000000000E+00  0.00000000000E+00  0.99999998245E-14  0.12500000000E+03  0.12500000000E+03 0.  0.
        -11    1    3    3    0    0 -0.29238140469E+02 -0.30171955614E+01  0.17814383681E+02  0.34370402868E+02  0.51100000000E-03 0. -1.
         23    2    1    0    0    0  0.18245789356E+02  0.41026256278E+01 -0.21555759846E+02  0.96462460709E+02  0.92144534169E+02 0.  0.
         11    1    3    3    0    0  0.47483929825E+02  0.71198211891E+01 -0.39370143526E+02  0.62092057841E+02  0.51100000000E-03 0.  1.
         22    1    1    0    0    0 -0.18245789356E+02 -0.41026256278E+01  0.21555759846E+02  0.28537539291E+02  0.00000000000E+00 0.  1.
</event>
<event>
 5    1  0.1096978E-009  0.9118800E+02  0.7818608E-02  0.1130116E+00
         25   -1    0    0    0    0  0.00000000000E+00  0.00000000000E+00  0.99999998245E-14  0.12500000000E+03  0.12500000000E+03 0.  0.
        -11    1    3    3    0    0  0.59877161965E+02  0.10047532782E+02 -0.11862873947E+02  0.61862389370E+02  0.51100000000E-03 0.  1.
         23    2    1    0    0    0  0.28196562289E+02  0.93051659843E+01 -0.10233994669E+02  0.93593521595E+02  0.88166776049E+02 0.  0.
         11    1    3    3    0    0 -0.31680599676E+02 -0.74236679792E+00  0.16288792785E+01  0.31731132225E+02  0.51100000000E-03 0. -1.
         22    1    1    0    0    0 -0.28196562289E+02 -0.93051659843E+01  0.10233994669E+02  0.31406478405E+02  0.00000000000E+00 0.  1.
</event>
<event>
 5    1  0.1096978E-009  0.9118800E+02  0.7818608E-02  0.1130116E+00
         25   -1    0    0    0    0  0.00000000000E+00  0.00000000000E+00  0.99999998245E-14  0.12500000000E+03  0.12500000000E+03 0.  0.
        -11    1    3    3    0    0 -0.21703659961E+02 -0.42879459488E+02  0.25082591386E+02  0.54211007116E+02  0.51100000000E-03 0. -1.
         23    2    1    0    0    0 -0.17264587209E+02 -0.73337839566E+00  0.22446967611E+02  0.96672095554E+02  0.92428479856E+02 0.  0.
         11    1    3    3    0    0  0.44390727520E+01  0.42146081093E+02 -0.26356237744E+01  0.42461088438E+02  0.51100000000E-03 0.  1.
         22    1    1    0    0    0  0.17264587209E+02  0.73337839566E+00 -0.22446967611E+02  0.28327904446E+02  0.00000000000E+00 0. -1.
</event>
<event>
 5    1  0.1096978E-009  0.9118800E+02  0.7818608E-02  0.1130116E+00
         25   -1    0    0    0    0  0.00000000000E+00  0.00000000000E+00  0.99999998245E-14  0.12500000000E+03  0.12500000000E+03 0.  0.
        -11    1    3    3    0    0  0.38272761844E+02 -0.12172687710E+02  0.52827320249E+01  0.40507849648E+02  0.51100000000E-03 0. -1.
         23    2    1    0    0    0  0.16627434558E+01  0.13310735189E+02 -0.26513351802E+02  0.95286396872E+02  0.90535071757E+02 0.  0.
         11    1    3    3    0    0 -0.36610018388E+02  0.25483422898E+02 -0.31796083827E+02  0.54778547224E+02  0.51100000000E-03 0.  1.
         22    1    1    0    0    0 -0.16627434558E+01 -0.13310735189E+02  0.26513351802E+02  0.29713603128E+02  0.00000000000E+00 0.  1.
</event>
<event>
 5    1  0.1096978E-009  0.9118800E+02  0.7818608E-02  0.1130116E+00
         25   -1    0    0    0    0  0.00000000000E+00  0.00000000000E+00  0.99999998245E-14  0.12500000000E+03  0.12500000000E+03 0.  0.
        -11    1    3    3    0    0  0.22010712144E+02 -0.45775360562E+02  0.26129120109E+02  0.57119051127E+02  0.51100000000E-03 0.  1.
         23    2    1    0    0    0  0.21024242052E+02 -0.22091136458E+02 -0.26322389046E+01  0.94390103798E+02  0.89289002399E+02 0.  0.
         11    1    3    3    0    0 -0.98647009201E+00  0.23684224104E+02 -0.28761359014E+02  0.37271052671E+02  0.51100000000E-03 0. -1.
         22    1    1    0    0    0 -0.21024242052E+02  0.22091136458E+02  0.26322389046E+01  0.30609896202E+02  0.00000000000E+00 0.  1.
</event>
<event>
 5    1  0.1096978E-009  0.9118800E+02  0.7818608E-02  0.1130116E+00
         25   -1    0    0    0    0  0.00000000000E+00  0.00000000000E+00  0.99999998245E-14  0.12500000000E+03  0.12500000000E+03 0.  0.
        -11    1    3    3    0    0 -0.30828083318E+02  0.72785960741E+01  0.30056396386E+02  0.43666184237E+02  0.51100000000E-03 0.  1.
         23    2    1    0    0    0 -0.11244867067E+02 -0.27090242478E+02 -0.33976930228E+01  0.95472511269E+02  0.90791672621E+02 0.  0.
         11    1    3    3    0    0  0.19583216251E+02 -0.34368838552E+02 -0.33454089408E+02  0.51806327032E+02  0.51100000000E-03 0. -1.
         22    1    1    0    0    0  0.11244867067E+02  0.27090242478E+02  0.33976930228E+01  0.29527488731E+02  0.00000000000E+00 0. -1.
</event>
<event>
 5    1  0.1096978E-009  0.9118800E+02  0.7818608E-02  0.1130116E+00
         25   -1    0    0    0    0  0.00000000000E+00  0.00000000000E+00  0.99999998245E-14  0.12500000000E+03  0.12500000000E+03 0.  0.
        -11    1    3    3    0    0  0.14584576300E+02  0.33382289139E+02 -0.73838041089E+01  0.37169983285E+02  0.51100000000E-03 0. -1.
         23    2    1    0    0    0  0.10000502920E+02 -0.21596024860E+02  0.15176554508E+02  0.96773662031E+02  0.92565736144E+02 0.  0.
         11    1    3    3    0    0 -0.45840733793E+01 -0.54978313999E+02  0.22560358617E+02  0.59603678746E+02  0.51100000000E-03 0.  1.
         22    1    1    0    0    0 -0.10000502920E+02  0.21596024860E+02 -0.15176554508E+02  0.28226337969E+02  0.00000000000E+00 0.  1.
</event>
<event>
 5    1  0.1096978E-009  0.9118800E+02  0.7818608E-02  0.1130116E+00
         25   -1    0    0    0    0  0.00000000000E+00  0.00000000000E+00  0.99999998245E-14  0.12500000000E+03  0.12500000000E+03 0.  0.
        -11    1    3    3    0    0  0.18169507940E+02  0.36282559193E+01  0.59538786321E+02  0.62355130797E+02  0.51100000000E-03 0. -1.
         23    2    1    0    0    0  0.42434860656E+01 -0.11217755031E+01  0.19505385874E+02  0.10500686037E+03  0.10308595972E+03 0.  0.
         11    1    3    3    0    0 -0.13926021874E+02 -0.47500314224E+01 -0.40033400447E+02  0.42651729571E+02  0.51100000000E-03 0.  1.
         22    1    1    0    0    0 -0.42434860656E+01  0.11217755031E+01 -0.19505385874E+02  0.19993139633E+02  0.00000000000E+00 0. -1.
</event>
<event>
 5    1  0.1096978E-009  0.9118800E+02  0.7818608E-02  0.1130116E+00
         25   -1    0    0    0    0  0.00000000000E+00  0.00000000000E+00  0.99999998245E-14  0.12500000000E+03  0.12500000000E+03 0.  0.
        -11    1    3    3    0    0  0.20137387928E+02 -0.30548200566E+02  0.10328126131E+02  0.38018115946E+02  0.51100000000E-03 0. -1.
         23    2    1    0    0    0 -0.28550265021E+02  0.61975672805E+00  0.34835219280E+01  0.96231325088E+02  0.91830448501E+02 0.  0.
         11    1    3    3    0    0 -0.48687652950E+02  0.31167957294E+02 -0.68446042029E+01  0.58213209142E+02  0.51100000000E-03 0.  1.
         22    1    1    0    0    0  0.28550265021E+02 -0.61975672805E+00 -0.34835219280E+01  0.28768674912E+02  0.00000000000E+00 0.  1.
</event>
<event>
 5    1  0.1096978E-009  0.9118800E+02  0.7818608E-02  0.1130116E+00
         25   -1    0    0    0    0  0.00000000000E+00  0.00000000000E+00  0.99999998245E-14  0.12500000000E+03  0.12500000000E+03 0.  0.
        -11    1    3    3    0    0 -0.14655421911E+02  0.45403635736E+02  0.26941514350E+02  0.54791575312E+02  0.51100000000E-03 0. -1.
         23    2    1    0    0    0 -0.24290826793E+02  0.72265277308E+01  0.12611742491E+02  0.96692350539E+02  0.92455868580E+02 0.  0.
         11    1    3    3    0    0 -0.96354048816E+01 -0.38177108005E+02 -0.14329771858E+02  0.41900775227E+02  0.51100000000E-03 0.  1.
         22    1    1    0    0    0  0.24290826793E+02 -0.72265277308E+01 -0.12611742491E+02  0.28307649461E+02  0.00000000000E+00 0.  1.
</event>
<event>
 5    1  0.1096978E-009  0.9118800E+02  0.7818608E-02  0.1130116E+00
         25   -1    0    0    0    0  0.00000000000E+00  0.00000000000E+00  0.99999998245E-14  0.12500000000E+03  0.12500000000E+03 0.  0.
        -11    1    3    3    0    0 -0.41530509363E+02 -0.15035255058E+02 -0.31502097486E+02  0.54251490753E+02  0.51100000000E-03 0. -1.
         23    2    1    0    0    0 -0.29349432855E+02 -0.51229746113E+01  0.57305724647E+01  0.94660693176E+02  0.89667013411E+02 0.  0.
         11    1    3    3    0    0  0.12181076508E+02  0.99122804471E+01  0.37232669951E+02  0.40409202423E+02  0.51100000000E-03 0.  1.
         22    1    1    0    0    0  0.29349432855E+02  0.51229746113E+01 -0.57305724647E+01  0.30339306824E+02  0.00000000000E+00 0. -1.
</event>
<event>
 5    1  0.1096978E-009  0.9118800E+02  0.7818608E-02  0.1130116E+00
         25   -1    0    0    0    0  0.00000000000E+00  0.00000000000E+00  0.99999998245E-14  0.12500000000E+03  0.12500000000E+03 0.  0.
        -11    1    3    3    0    0 -0.37084183935E+02 -0.27220193779E+02 -0.10331567799E+02  0.47147820108E+02  0.51100000000E-03 0. -1.
         23    2    1    0    0    0 -0.21384894433E+02 -0.30323481326E+00  0.23555445150E+02  0.93183893113E+02  0.87584092609E+02 0.  0.
         11    1    3    3    0    0  0.15699289502E+02  0.26916958966E+02  0.33887012949E+02  0.46036073005E+02  0.51100000000E-03 0.  1.
         22    1    1    0    0    0  0.21384894433E+02  0.30323481326E+00 -0.23555445150E+02  0.31816106887E+02  0.00000000000E+00 0.  1.
</event>
<event>
 5    1  0.1096978E-009  0.9118800E+02  0.7818608E-02  0.1130116E+00
         25   -1    0    0    0    0  0.00000000000E+00  0.00000000000E+00  0.99999998245E-14  0.12500000000E+03  0.12500000000E+03 0.  0.
        -11    1    3    3    0    0 -0.84779652773E+01 -0.23144494642E+02  0.40320273324E+02  0.47257464688E+02  0.51100000000E-03 0.  1.
         23    2    1    0    0    0 -0.30158957787E+02 -0.72996291420E+00  0.49211492807E+01  0.94433461255E+02  0.89349679986E+02 0.  0.
         11    1    3    3    0    0 -0.21680992509E+02  0.22414531728E+02 -0.35399124044E+02  0.47175996567E+02  0.51100000000E-03 0. -1.
         22    1    1    0    0    0  0.30158957787E+02  0.72996291420E+00 -0.49211492807E+01  0.30566538745E+02  0.00000000000E+00 0. -1.
</event>
<event>
 5    1  0.1096978E-009  0.9118800E+02  0.7818608E-02  0.1130116E+00
         25   -1    0    0    0    0  0.00000000000E+00  0.00000000000E+00  0.99999998245E-14  0.12500000000E+03  0.12500000000E+03 0.  0.
        -11    1    3    3    0    0  0.11602267297E+02 -0.34787925478E+02 -0.11231403171E+02  0.38353054415E+02  0.51100000000E-03 0. -1.
         23    2    1    0    0    0  0.19024322563E+02  0.14457708014E+02  0.17069759955E+02  0.95634597314E+02  0.91014555586E+02 0.  0.
         11    1    3    3    0    0  0.74220552660E+01  0.49245633492E+02  0.28301163126E+02  0.57281542899E+02  0.51100000000E-03 0.  1.
         22    1    1    0    0    0 -0.19024322563E+02 -0.14457708014E+02 -0.17069759955E+02  0.29365402686E+02  0.00000000000E+00 0.  1.
</event>
<event>
 5    1  0.1096978E-009  0.9118800E+02  0.7818608E-02  0.1130116E+00
         25   -1    0    0    0    0  0.00000000000E+00  0.00000000000E+00  0.99999998245E-14  0.12500000000E+03  0.12500000000E+03 0.  0.
        -11    1    3    3    0    0 -0.50503721413E+02 -0.97824884643E+01 -0.15516566205E+02  0.53731618104E+02  0.51100000000E-03 0.  1.
         23    2    1    0    0    0 -0.20620861333E+02  0.13927364341E+02 -0.21213891271E+02  0.92301061447E+02  0.86314919694E+02 0.  0.
         11    1    3    3    0    0  0.29882860079E+02  0.23709852806E+02 -0.56973250664E+01  0.38569443343E+02  0.51100000000E-03 0. -1.
         22    1    1    0    0    0  0.20620861333E+02 -0.13927364341E+02  0.21213891271E+02  0.32698938553E+02  0.00000000000E+00 0.  1.
</event>
<event>
 5    1  0.1096978E-009  0.9118800E+02  0.7818608E-02  0.1130116E+00
         25   -1    0    0    0    0  0.00000000000E+00  0.00000000000E+00  0.99999998245E-14  0.12500000000E+03  0.12500000000E+03 0.  0.
        -11    1    3    3    0    0  0.40308820559E+02 -0.16223523246E+02 -0.19173438404E+02  0.47493414932E+02  0.51100000000E-03 0. -1.
         23    2    1    0    0    0  0.24688592098E+02 -0.10177541971E+02  0.21005917097E+02  0.91024163094E+02  0.84445489953E+02 0.  0.
         11    1    3    3    0    0 -0.15620228461E+02  0.60459812747E+01  0.40179355502E+02  0.43530748162E+02  0.51100000000E-03 0.  1.
         22    1    1    0    0    0 -0.24688592098E+02  0.10177541971E+02 -0.21005917097E+02  0.33975836906E+02  0.00000000000E+00 0.  1.
</event>
<event>
 5    1  0.1096978E-009  0.9118800E+02  0.7818608E-02  0.1130116E+00
         25   -1    0    0    0    0  0.00000000000E+00  0.00000000000E+00  0.99999998245E-14  0.12500000000E+03  0.12500000000E+03 0.  0.
        -11    1    3    3    0    0  0.80556512901E+01  0.47767623249E+02 -0.37329693396E+02  0.61156727822E+02  0.51100000000E-03 0. -1.
         23    2    1    0    0    0 -0.42069978513E+00  0.26053772378E+02 -0.99676327610E+01  0.97101438276E+02  0.93007309223E+02 0.  0.
         11    1    3    3    0    0 -0.84763510752E+01 -0.21713850871E+02  0.27362060635E+02  0.35944710454E+02  0.51100000000E-03 0.  1.
         22    1    1    0    0    0  0.42069978513E+00 -0.26053772378E+02  0.99676327610E+01  0.27898561724E+02  0.00000000000E+00 0. -1.
</event>
<event>
 5    1  0.1096978E-009  0.9118800E+02  0.7818608E-02  0.1130116E+00
         25   -1    0    0    0    0  0.00000000000E+00  0.00000000000E+00  0.99999998245E-14  0.12500000000E+03  0.12500000000E+03 0.  0.
        -11    1    3    3    0    0 -0.12126935062E+02  0.44363508035E+02  0.12303384444E+02  0.47608367628E+02  0.51100000000E-03 0.  1.
         23    2    1    0    0    0  0.20983879835E+02  0.22145287493E+02 -0.94903213406E+01  0.93049989511E+02  0.87392776462E+02 0.  0.
         11    1    3    3    0    0  0.33110814898E+02 -0.22218220542E+02 -0.21793705785E+02  0.45441621883E+02  0.51100000000E-03 0. -1.
         22    1    1    0    0    0 -0.20983879835E+02 -0.22145287493E+02  0.94903213406E+01  0.31950010489E+02  0.00000000000E+00 0.  1.
</event>
<event>
 5    1  0.1096978E-009  0.9118800E+02  0.7818608E-02  0.1130116E+00
         25   -1    0    0    0    0  0.00000000000E+00  0.00000000000E+00  0.99999998245E-14  0.12500000000E+03  0.12500000000E+03 0.  0.
        -11    1    3    3    0    0  0.10114162736E+02 -0.11895360729E+00  0.59401485230E+02  0.60256509073E+02  0.51100000000E-03 0. -1.
         23    2    1    0    0    0 -0.35114102319E+01 -0.83951702287E+01  0.29306070487E+02  0.94313608026E+02  0.89181847966E+02 0.  0.
         11    1    3    3    0    0 -0.13625572968E+02 -0.82762166214E+01 -0.30095414743E+02  0.34057098953E+02  0.51100000000E-03 0.  1.
         22    1    1    0    0    0  0.35114102319E+01  0.83951702287E+01 -0.29306070487E+02  0.30686391974E+02  0.00000000000E+00 0. -1.
</event>
<event>
 5    1  0.1096978E-009  0.9118800E+02  0.7818608E-02  0.1130116E+00
         25   -1    0    0    0    0  0.00000000000E+00  0.00000000000E+00  0.99999998245E-14  0.12500000000E+03  0.12500000000E+03 0.  0.
        -11    1    3    3    0    0 -0.85254420247E+01 -0.15072828258E+02  0.27969424760E+02  0.32896231320E+02  0.51100000000E-03 0.  1.
         23    2    1    0    0    0  0.32286774696E+01  0.18087816797E+02 -0.23455734453E+02  0.95204615233E+02  0.90422086949E+02 0.  0.
         11    1    3    3    0    0  0.11754119494E+02  0.33160645055E+02 -0.51425159212E+02  0.62308383913E+02  0.51100000000E-03 0. -1.
         22    1    1    0    0    0 -0.32286774696E+01 -0.18087816797E+02  0.23455734453E+02  0.29795384767E+02  0.00000000000E+00 0. -1.
</event>
<event>
 5    1  0.1096978E-009  0.9118800E+02  0.7818608E-02  0.1130116E+00
         25   -1    0    0    0    0  0.00000000000E+00  0.00000000000E+00  0.99999998245E-14  0.12500000000E+03  0.12500000000E+03 0.  0.
        -11    1    3    3    0    0  0.11182081784E+02  0.22249115754E+02  0.29283072219E+02  0.38439048164E+02  0.51100000000E-03 0. -1.
         23    2    1    0    0    0 -0.27140447783E+02  0.28561863430E+01 -0.92942439464E+01  0.96170420106E+02  0.91747506923E+02 0.  0.
         11    1    3    3    0    0 -0.38322529568E+02 -0.19392929411E+02 -0.38577316166E+02  0.57731371943E+02  0.51100000000E-03 0.  1.
         22    1    1    0    0    0  0.27140447783E+02 -0.28561863430E+01  0.92942439464E+01  0.28829579894E+02  0.00000000000E+00 0.  1.
</event>
<event>
 5    1  0.1096978E-009  0.9118800E+02  0.7818608E-02  0.1130116E+00
         25   -1    0    0    0    0  0.00000000000E+00  0.00000000000E+00  0.99999998245E-14  0.12500000000E+03  0.12500000000E+03 0.  0.
        -11    1    3    3    0    0  0.41083467732E+02 -0.58621355599E+01  0.33264744630E+02  0.53186080789E+02  0.51100000000E-03 0. -1.
         23    2    1    0    0    0  0.10540028526E+02 -0.25256732334E+02  0.12375391268E+02  0.94964270634E+02  0.90089220545E+02 0.  0.
         11    1    3    3    0    0 -0.30543439206E+02 -0.19394596774E+02 -0.20889353361E+02  0.41778189844E+02  0.51100000000E-03 0.  1.
         22    1    1    0    0    0 -0.10540028526E+02  0.25256732334E+02 -0.12375391268E+02  0.30035729366E+02  0.00000000000E+00 0. -1.
</event>
<event>
 5    1  0.1096978E-009  0.9118800E+02  0.7818608E-02  0.1130116E+00
         25   -1    0    0    0    0  0.00000000000E+00  0.00000000000E+00  0.99999998245E-14  0.12500000000E+03  0.12500000000E+03 0.  0.
        -11    1    3    3    0    0 -0.61558964533E+01  0.46732627287E+02  0.29977564308E+02  0.55861327199E+02  0.51100000000E-03 0.  1.
         23    2    1    0    0    0  0.64469744033E+01  0.28068402765E+02 -0.32671510799E+01  0.96015987357E+02  0.91536860549E+02 0.  0.
         11    1    3    3    0    0  0.12602870857E+02 -0.18664224523E+02 -0.33244715388E+02  0.40154660158E+02  0.51100000000E-03 0. -1.
         22    1    1    0    0    0 -0.64469744033E+01 -0.28068402765E+02  0.32671510799E+01  0.28984012643E+02  0.00000000000E+00 0. -1.
</event>
<event>
 5    1  0.1096978E-009  0.9118800E+02  0.7818608E-02  0.1130116E+00
         25   -1    0    0    0    0  0.00000000000E+00  0.00000000000E+00  0.99999998245E-14  0.12500000000E+03  0.12500000000E+03 0.  0.
        -11    1    3    3    0    0  0.35712373003E+02 -0.24705824427E+02 -0.61722764174E+01  0.43861695618E+02  0.51100000000E-03 0.  1.
         23    2    1    0    0    0 -0.16305393427E+02 -0.22093042943E+02  0.48968377061E+01  0.97108291182E+02  0.93016518939E+02 0.  0.
         11    1    3    3    0    0 -0.52017766429E+02  0.26127814840E+01  0.11069114124E+02  0.53246595564E+02  0.51100000000E-03 0. -1.
         22    1    1    0    0    0  0.16305393427E+02  0.22093042943E+02 -0.48968377061E+01  0.27891708818E+02  0.00000000000E+00 0.  1.
</event>
<event>
 5    1  0.1096978E-009  0.9118800E+02  0.7818608E-02  0.1130116E+00
         25   -1    0    0    0    0  0.00000000000E+00  0.00000000000E+00  0.99999998245E-14  0.12500000000E+03  0.12500000000E+03 0.  0.
        -11    1    3    3    0    0  0.68427933319E+01 -0.34256273418E+02  0.61863757022E+01  0.35476574436E+02  0.51100000000E-03 0.  1.
         23    2    1    0    0    0 -0.21444819639E+02  0.19222541366E+02  0.26518639393E+01  0.96079094615E+02  0.91622997406E+02 0.  0.
         11    1    3    3    0    0 -0.28287612971E+02  0.53478814785E+02 -0.35345117629E+01  0.60602520179E+02  0.51100000000E-03 0. -1.
         22    1    1    0    0    0  0.21444819639E+02 -0.19222541366E+02 -0.26518639393E+01  0.28920905385E+02  0.00000000000E+00 0. -1.
</event>
<event>
 5    1  0.1096978E-009  0.9118800E+02  0.7818608E-02  0.1130116E+00
         25   -1    0    0    0    0  0.00000000000E+00  0.00000000000E+00  0.99999998245E-14  0.12500000000E+03  0.12500000000E+03 0.  0.
        -11    1    3    3    0    0  0.14671369756E+02 -0.44799051315E+02  0.33034617323E+01  0.47255866820E+02  0.51100000000E-03 0.  1.
         23    2    1    0    0    0  0.27971365090E+02  0.82918283073E+00  0.10064556574E+02  0.95261470981E+02  0.90500650524E+02 0.  0.
         11    1    3    3    0    0  0.13299995334E+02  0.45628234146E+02  0.67610948419E+01  0.48005604161E+02  0.51100000000E-03 0. -1.
         22    1    1    0    0    0 -0.27971365090E+02 -0.82918283073E+00 -0.10064556574E+02  0.29738529019E+02  0.00000000000E+00 0.  1.
</event>
<event>
 5    1  0.1096978E-009  0.9118800E+02  0.7818608E-02  0.1130116E+00
         25   -1    0    0    0    0  0.00000000000E+00  0.00000000000E+00  0.99999998245E-14  0.12500000000E+03  0.12500000000E+03 0.  0.
        -11    1    3    3    0    0 -0.25959205020E+02  0.33545993483E+02 -0.45070660576E+01  0.42655921614E+02  0.51100000000E-03 0. -1.
         23    2    1    0    0    0 -0.34090677727E+01  0.17694385858E+02  0.31925022706E+02  0.88340484062E+02  0.80374878013E+02 0.  0.
         11    1    3    3    0    0  0.22550137248E+02 -0.15851607624E+02  0.36432088764E+02  0.45684562449E+02  0.51100000000E-03 0.  1.
         22    1    1    0    0    0  0.34090677727E+01 -0.17694385858E+02 -0.31925022706E+02  0.36659515938E+02  0.00000000000E+00 0.  1.
</event>
<event>
 5    1  0.1096978E-009  0.9118800E+02  0.7818608E-02  0.1130116E+00
         25   -1    0    0    0    0  0.00000000000E+00  0.00000000000E+00  0.99999998245E-14  0.12500000000E+03  0.12500000000E+03 0.  0.
        -11    1    3    3    0    0 -0.23122088973E+02  0.20743404709E+02  0.25131931584E+02  0.39956649294E+02  0.51100000000E-03 0.  1.
         23    2    1    0    0    0  0.15472053537E+01  0.14747540815E+02 -0.24875951583E+02  0.96039738060E+02  0.91569288055E+02 0.  0.
         11    1    3    3    0    0  0.24669294327E+02 -0.59958638940E+01 -0.50007883167E+02  0.56083088766E+02  0.51100000000E-03 0. -1.
         22    1    1    0    0    0 -0.15472053537E+01 -0.14747540815E+02  0.24875951583E+02  0.28960261940E+02  0.00000000000E+00 0. -1.
</event>
<event>
 5    1  0.1096978E-009  0.9118800E+02  0.7818608E-02  0.1130116E+00
         25   -1    0    0    0    0  0.00000000000E+00  0.00000000000E+00  0.99999998245E-14  0.12500000000E+03  0.12500000000E+03 0.  0.
        -11    1    3    3    0    0  0.18555141298E+02 -0.50219628391E+02  0.97193139382E+01  0.54412952576E+02  0.51100000000E-03 0. -1.
         23    2    1    0    0    0  0.27345640257E+00 -0.16414242134E+02  0.24431959205E+02  0.95564940057E+02  0.90918837510E+02 0.  0.
         11    1    3    3    0    0 -0.18281684895E+02  0.33805386257E+02  0.14712645267E+02  0.41151987481E+02  0.51100000000E-03 0.  1.
         22    1    1    0    0    0 -0.27345640257E+00  0.16414242134E+02 -0.24431959205E+02  0.29435059943E+02  0.00000000000E+00 0.  1.
</event>
<event>
 5    1  0.1096978E-009  0.9118800E+02  0.7818608E-02  0.1130116E+00
         25   -1    0    0    0    0  0.00000000000E+00  0.00000000000E+00  0.99999998245E-14  0.12500000000E+03  0.12500000000E+03 0.  0.
        -11    1    3    3    0    0 -0.18028245936E+02  0.13655615845E+02 -0.27941387321E+02  0.35947386850E+02  0.51100000000E-03 0.  1.
         23    2    1    0    0    0  0.28400679107E+02 -0.73187654015E+01  0.29427119146E+01  0.95524205623E+02  0.90862816409E+02 0.  0.
         11    1    3    3    0    0  0.46428925043E+02 -0.20974381247E+02  0.30884099236E+02  0.59576818774E+02  0.51100000000E-03 0. -1.
         22    1    1    0    0    0 -0.28400679107E+02  0.73187654015E+01 -0.29427119146E+01  0.29475794377E+02  0.00000000000E+00 0. -1.
</event>
<event>
 5    1  0.1096978E-009  0.9118800E+02  0.7818608E-02  0.1130116E+00
         25   -1    0    0    0    0  0.00000000000E+00  0.00000000000E+00  0.99999998245E-14  0.12500000000E+03  0.12500000000E+03 0.  0.
        -11    1    3    3    0    0  0.33488379382E+02 -0.31918098533E+01 -0.72882742324E+01  0.34420606406E+02  0.51100000000E-03 0. -1.
         23    2    1    0    0    0 -0.26921733073E+02 -0.72913871517E+00  0.82268510743E+01  0.96839878666E+02  0.92655111389E+02 0.  0.
         11    1    3    3    0    0 -0.60410112455E+02  0.24626711381E+01  0.15515125307E+02  0.62419272261E+02  0.51100000000E-03 0.  1.
         22    1    1    0    0    0  0.26921733073E+02  0.72913871517E+00 -0.82268510743E+01  0.28160121334E+02  0.00000000000E+00 0.  1.
</event>
<event>
 5    1  0.1096978E-009  0.9118800E+02  0.7818608E-02  0.1130116E+00
         25   -1    0    0    0    0  0.00000000000E+00  0.00000000000E+00  0.99999998245E-14  0.12500000000E+03  0.12500000000E+03 0.  0.
        -11    1    3    3    0    0  0.56064635028E+02 -0.15058879858E+02 -0.14310481905E+02  0.59789656765E+02  0.51100000000E-03 0.  1.
         23    2    1    0    0    0  0.26517526479E+02 -0.14931139894E+02  0.36221050130E+01  0.94353013300E+02  0.89237062507E+02 0.  0.
         11    1    3    3    0    0 -0.29547108549E+02  0.12773996446E+00  0.17932586918E+02  0.34563356535E+02  0.51100000000E-03 0. -1.
         22    1    1    0    0    0 -0.26517526479E+02  0.14931139894E+02 -0.36221050130E+01  0.30646986700E+02  0.00000000000E+00 0.  1.
</event>
<event>
 5    1  0.1096978E-009  0.9118800E+02  0.7818608E-02  0.1130116E+00
         25   -1    0    0    0    0  0.00000000000E+00  0.00000000000E+00  0.99999998245E-14  0.12500000000E+03  0.12500000000E+03 0.  0.
        -11    1    3    3    0    0  0.18494642615E+02 -0.28227104034E+02  0.25064939953E+02  0.42036560548E+02  0.51100000000E-03 0.  1.
         23    2    1    0    0    0  0.28870770826E+02  0.69271878834E+01 -0.10884930254E+02  0.93377396586E+02  0.87859826693E+02 0.  0.
         11    1    3    3    0    0  0.10376128210E+02  0.35154291917E+02 -0.35949870207E+02  0.51340836038E+02  0.51100000000E-03 0. -1.
         22    1    1    0    0    0 -0.28870770826E+02 -0.69271878834E+01  0.10884930254E+02  0.31622603414E+02  0.00000000000E+00 0. -1.
</event>
<event>
 5    1  0.1096978E-009  0.9118800E+02  0.7818608E-02  0.1130116E+00
         25   -1    0    0    0    0  0.00000000000E+00  0.00000000000E+00  0.99999998245E-14  0.12500000000E+03  0.12500000000E+03 0.  0.
        -11    1    3    3    0    0 -0.65996949678E+01 -0.31580704940E+02 -0.80535879168E+01  0.33252927341E+02  0.51100000000E-03 0.  1.
         23    2    1    0    0    0 -0.49541457633E+01  0.29611782339E+02 -0.14491445425E+00  0.94976305795E+02  0.90105917945E+02 0.  0.
         11    1    3    3    0    0  0.16455492045E+01  0.61192487279E+02  0.79086734625E+01  0.61723378454E+02  0.51100000000E-03 0. -1.
         22    1    1    0    0    0  0.49541457633E+01 -0.29611782339E+02  0.14491445425E+00  0.30023694205E+02  0.00000000000E+00 0. -1.
</event>
<event>
 5    1  0.1096978E-009  0.9118800E+02  0.7818608E-02  0.1130116E+00
         25   -1    0    0    0    0  0.00000000000E+00  0.00000000000E+00  0.99999998245E-14  0.12500000000E+03  0.12500000000E+03 0.  0.
        -11    1    3    3    0    0  0.57874040143E+00  0.34405629383E+02 -0.85400791989E+01  0.35454410539E+02  0.51100000000E-03 0. -1.
         23    2    1    0    0    0 -0.13693856993E+02 -0.24585274694E+02  0.71626682054E+00  0.96849147627E+02  0.92667615200E+02 0.  0.
         11    1    3    3    0    0 -0.14272597395E+02 -0.58990904077E+02  0.92563460194E+01  0.61394737088E+02  0.51100000000E-03 0.  1.
         22    1    1    0    0    0  0.13693856993E+02  0.24585274694E+02 -0.71626682054E+00  0.28150852373E+02  0.00000000000E+00 0.  1.
</event>
<event>
 5    1  0.1096978E-009  0.9118800E+02  0.7818608E-02  0.1130116E+00
         25   -1    0    0    0    0  0.00000000000E+00  0.00000000000E+00  0.99999998245E-14  0.12500000000E+03  0.12500000000E+03 0.  0.
        -11    1    3    3    0    0  0.20145342058E+02 -0.32010400674E+02  0.34555533029E+02  0.51230707795E+02  0.51100000000E-03 0.  1.
         23    2    1    0    0    0 -0.88562999067E+00  0.66870591667E+01  0.28529210158E+02  0.95684186298E+02  0.91082635966E+02 0.  0.
         11    1    3    3    0    0 -0.21030972049E+02  0.38697459841E+02 -0.60263228714E+01  0.44453478504E+02  0.51100000000E-03 0. -1.
         22    1    1    0    0    0  0.88562999067E+00 -0.66870591667E+01 -0.28529210158E+02  0.29315813702E+02  0.00000000000E+00 0. -1.
</event>
<event>
 5    1  0.1096978E-009  0.9118800E+02  0.7818608E-02  0.1130116E+00
         25   -1    0    0    0    0  0.00000000000E+00  0.00000000000E+00  0.99999998245E-14  0.12500000000E+03  0.12500000000E+03 0.  0.
        -11    1    3    3    0    0 -0.17013007367E+02  0.33734561551E+02 -0.34147954398E+02  0.50926867688E+02  0.51100000000E-03 0.  1.
         23    2    1    0    0    0 -0.88371825307E+01 -0.91984194867E+01 -0.26900835062E+02  0.95228173668E+02  0.90454648399E+02 0.  0.
         11    1    3    3    0    0  0.81758248366E+01 -0.42932981038E+02  0.72471193364E+01  0.44301305979E+02  0.51100000000E-03 0. -1.
         22    1    1    0    0    0  0.88371825307E+01  0.91984194867E+01  0.26900835062E+02  0.29771826332E+02  0.00000000000E+00 0.  1.
</event>
<event>
 5    1  0.1096978E-009  0.9118800E+02  0.7818608E-02  0.1130116E+00
         25   -1    0    0    0    0  0.00000000000E+00  0.00000000000E+00  0.99999998245E-14  0.12500000000E+03  0.12500000000E+03 0.  0.
        -11    1    3    3    0    0  0.94281200519E+01 -0.50185033758E+02  0.33051313221E+01  0.51169824647E+02  0.51100000000E-03 0.  1.
         23    2    1    0    0    0  0.28302163104E+02 -0.11458696075E+02 -0.88024410947E+00  0.94453494769E+02  0.89377702434E+02 0.  0.
         11    1    3    3    0    0  0.18874043052E+02  0.38726337684E+02 -0.41853754316E+01  0.43283670123E+02  0.51100000000E-03 0. -1.
         22    1    1    0    0    0 -0.28302163104E+02  0.11458696075E+02  0.88024410947E+00  0.30546505231E+02  0.00000000000E+00 0.  1.
</event>
<event>
 5    1  0.1096978E-009  0.9118800E+02  0.7818608E-02  0.1130116E+00
         25   -1    0    0    0    0  0.00000000000E+00  0.00000000000E+00  0.99999998245E-14  0.12500000000E+03  0.12500000000E+03 0.  0.
        -11    1    3    3    0    0 -0.20597153891E+02 -0.29201150721E+02  0.23964811893E+02  0.43026296159E+02  0.51100000000E-03 0. -1.
         23    2    1    0    0    0 -0.19285792621E+02  0.17637944671E+02 -0.53839724968E+01  0.98316183761E+02  0.94625820684E+02 0.  0.
         11    1    3    3    0    0  0.13113612708E+01  0.46839095392E+02 -0.29348784390E+02  0.55289887602E+02  0.51100000000E-03 0.  1.
         22    1    1    0    0    0  0.19285792621E+02 -0.17637944671E+02  0.53839724968E+01  0.26683816239E+02  0.00000000000E+00 0.  1.
</event>
<event>
 5    1  0.1096978E-009  0.9118800E+02  0.7818608E-02  0.1130116E+00
         25   -1    0    0    0    0  0.00000000000E+00  0.00000000000E+00  0.99999998245E-14  0.12500000000E+03  0.12500000000E+03 0.  0.
        -11    1    3    3    0    0 -0.16297242398E+02  0.25683848529E+02  0.15495251004E+02  0.34137413331E+02  0.51100000000E-03 0.  1.
         23    2    1    0    0    0 -0.25249753275E+01 -0.26066958815E+02 -0.14030330776E+02  0.95289530062E+02  0.90539397587E+02 0.  0.
         11    1    3    3    0    0  0.13772267070E+02 -0.51750807343E+02 -0.29525581780E+02  0.61152116731E+02  0.51100000000E-03 0. -1.
         22    1    1    0    0    0  0.25249753275E+01  0.26066958815E+02  0.14030330776E+02  0.29710469938E+02  0.00000000000E+00 0. -1.
</event>
<event>
 5    1  0.1096978E-009  0.9118800E+02  0.7818608E-02  0.1130116E+00
         25   -1    0    0    0    0  0.00000000000E+00  0.00000000000E+00  0.99999998245E-14  0.12500000000E+03  0.12500000000E+03 0.  0.
        -11    1    3    3    0    0 -0.43901045689E+01  0.38741074785E+02 -0.57811583239E+01  0.39415297607E+02  0.51100000000E-03 0. -1.
         23    2    1    0    0    0  0.31866568950E+02  0.71708963465E+01 -0.16098138032E+02  0.88585030288E+02  0.80754303736E+02 0.  0.
         11    1    3    3    0    0  0.36256673519E+02 -0.31570178439E+02 -0.10316979708E+02  0.49169732680E+02  0.51100000000E-03 0.  1.
         22    1    1    0    0    0 -0.31866568950E+02 -0.71708963465E+01  0.16098138032E+02  0.36414969712E+02  0.00000000000E+00 0.  1.
</event>
<event>
 5    1  0.1096978E-009  0.9118800E+02  0.7818608E-02  0.1130116E+00
         25   -1    0    0    0    0  0.00000000000E+00  0.00000000000E+00  0.99999998245E-14  0.12500000000E+03  0.12500000000E+03 0.  0.
        -11    1    3    3    0    0 -0.37189283412E+02  0.49183222075E+01 -0.58207553892E+00  0.37517615946E+02  0.51100000000E-03 0.  1.
         23    2    1    0    0    0  0.15515944023E+02  0.21074206994E+02 -0.15445435707E+02  0.94612038510E+02  0.89599160864E+02 0.  0.
         11    1    3    3    0    0  0.52705227435E+02  0.16155884786E+02 -0.14863360168E+02  0.57094422564E+02  0.51100000000E-03 0. -1.
         22    1    1    0    0    0 -0.15515944023E+02 -0.21074206994E+02  0.15445435707E+02  0.30387961490E+02  0.00000000000E+00 0. -1.
</event>
<event>
 5    1  0.1096978E-009  0.9118800E+02  0.7818608E-02  0.1130116E+00
         25   -1    0    0    0    0  0.00000000000E+00  0.00000000000E+00  0.99999998245E-14  0.12500000000E+03  0.12500000000E+03 0.  0.
        -11    1    3    3    0    0 -0.22535182430E+02  0.50090503490E+02  0.16632192077E+02  0.57389221990E+02  0.51100000000E-03 0.  1.
         23    2    1    0    0    0 -0.14269404163E+02  0.13602032580E+02  0.22307208323E+02  0.95230170833E+02  0.90457408255E+02 0.  0.
         11    1    3    3    0    0  0.82657782661E+01 -0.36488470910E+02  0.56750162458E+01  0.37840948843E+02  0.51100000000E-03 0. -1.
         22    1    1    0    0    0  0.14269404163E+02 -0.13602032580E+02 -0.22307208323E+02  0.29769829167E+02  0.00000000000E+00 0.  1.
</event>
<event>
 5    1  0.1096978E-009  0.9118800E+02  0.7818608E-02  0.1130116E+00
         25   -1    0    0    0    0  0.00000000000E+00  0.00000000000E+00  0.99999998245E-14  0.12500000000E+03  0.12500000000E+03 0.  0.
        -11    1    3    3    0    0 -0.33962919472E+02 -0.32359577960E+02  0.21325765514E+01  0.46959238366E+02  0.51100000000E-03 0.  1.
         23    2    1    0    0    0  0.13796395541E+02 -0.26259189340E+02 -0.19080199103E+01  0.95275833154E+02  0.90520485463E+02 0.  0.
         11    1    3    3    0    0  0.47759315014E+02  0.61003886203E+01 -0.40405964617E+01  0.48316594788E+02  0.51100000000E-03 0. -1.
         22    1    1    0    0    0 -0.13796395541E+02  0.26259189340E+02  0.19080199103E+01  0.29724166846E+02  0.00000000000E+00 0.  1.
</event>
<event>
 5    1  0.1096978E-009  0.9118800E+02  0.7818608E-02  0.1130116E+00
         25   -1    0    0    0    0  0.00000000000E+00  0.00000000000E+00  0.99999998245E-14  0.12500000000E+03  0.12500000000E+03 0.  0.
        -11    1    3    3    0    0  0.20787479920E+02 -0.29637203467E+02 -0.14246424260E+02  0.38903004450E+02  0.51100000000E-03 0. -1.
         23    2    1    0    0    0  0.54926523933E+01  0.17914425084E+02  0.18530106744E+02  0.98647377505E+02  0.95062318383E+02 0.  0.
         11    1    3    3    0    0 -0.15294827526E+02  0.47551628551E+02  0.32776531004E+02  0.59744373056E+02  0.51100000000E-03 0.  1.
         22    1    1    0    0    0 -0.54926523933E+01 -0.17914425084E+02 -0.18530106744E+02  0.26352622495E+02  0.00000000000E+00 0.  1.
</event>
<event>
 5    1  0.1096978E-009  0.9118800E+02  0.7818608E-02  0.1130116E+00
         25   -1    0    0    0    0  0.00000000000E+00  0.00000000000E+00  0.99999998245E-14  0.12500000000E+03  0.12500000000E+03 0.  0.
        -11    1    3    3    0    0  0.16028349576E+02 -0.12037805611E+02 -0.45380301091E+02  0.49610366673E+02  0.51100000000E-03 0.  1.
         23    2    1    0    0    0  0.66366734084E+01 -0.29512813382E+02 -0.53587453929E+01  0.94279196954E+02  0.89133603307E+02 0.  0.
         11    1    3    3    0    0 -0.93916761676E+01 -0.17475007771E+02  0.40021555699E+02  0.44668830280E+02  0.51100000000E-03 0. -1.
         22    1    1    0    0    0 -0.66366734084E+01  0.29512813382E+02  0.53587453929E+01  0.30720803046E+02  0.00000000000E+00 0. -1.
</event>
<event>
 5    1  0.1096978E-009  0.9118800E+02  0.7818608E-02  0.1130116E+00
         25   -1    0    0    0    0  0.00000000000E+00  0.00000000000E+00  0.99999998245E-14  0.12500000000E+03  0.12500000000E+03 0.  0.
        -11    1    3    3    0    0 -0.57991572497E+02 -0.13839853113E+02 -0.92319529985E+01  0.60330696757E+02  0.51100000000E-03 0.  1.
         23    2    1    0    0    0 -0.22840942037E+02 -0.11492388035E+02 -0.13948000648E+02  0.95873889069E+02  0.91342609264E+02 0.  0.
         11    1    3    3    0    0  0.35150630459E+02  0.23474650777E+01 -0.47160476498E+01  0.35543192311E+02  0.51100000000E-03 0. -1.
         22    1    1    0    0    0  0.22840942037E+02  0.11492388035E+02  0.13948000648E+02  0.29126110931E+02  0.00000000000E+00 0.  1.
</event>
<event>
 5    1  0.1096978E-009  0.9118800E+02  0.7818608E-02  0.1130116E+00
         25   -1    0    0    0    0  0.00000000000E+00  0.00000000000E+00  0.99999998245E-14  0.12500000000E+03  0.12500000000E+03 0.  0.
        -11    1    3    3    0    0 -0.26584443353E+01 -0.41385643657E+02 -0.22755328372E+02  0.47303739775E+02  0.51100000000E-03 0. -1.
         23    2    1    0    0    0  0.24248999431E+02 -0.16085420753E+02  0.73889117914E+01  0.94977495913E+02  0.90107568929E+02 0.  0.
         11    1    3    3    0    0  0.26907443766E+02  0.25300222904E+02  0.30144240163E+02  0.47673756138E+02  0.51100000000E-03 0.  1.
         22    1    1    0    0    0 -0.24248999431E+02  0.16085420753E+02 -0.73889117914E+01  0.30022504087E+02  0.00000000000E+00 0.  1.
</event>
<event>
 5    1  0.1096978E-009  0.9118800E+02  0.7818608E-02  0.1130116E+00
         25   -1    0    0    0    0  0.00000000000E+00  0.00000000000E+00  0.99999998245E-14  0.12500000000E+03  0.12500000000E+03 0.  0.
        -11    1    3    3    0    0  0.19655044950E+02 -0.45933280818E+02  0.10869310416E+02  0.51130509365E+02  0.51100000000E-03 0.  1.
         23    2    1    0    0    0 -0.17654904794E+02 -0.18507671667E+02  0.10262888258E+02  0.97439948309E+02  0.93461152771E+02 0.  0.
         11    1    3    3    0    0 -0.37309949744E+02  0.27425609151E+02 -0.60642215764E+00  0.46309438944E+02  0.51100000000E-03 0. -1.
         22    1    1    0    0    0  0.17654904794E+02  0.18507671667E+02 -0.10262888258E+02  0.27560051691E+02  0.00000000000E+00 0.  1.
</event>
<event>
 5    1  0.1096978E-009  0.9118800E+02  0.7818608E-02  0.1130116E+00
         25   -1    0    0    0    0  0.00000000000E+00  0.00000000000E+00  0.99999998245E-14  0.12500000000E+03  0.12500000000E+03 0.  0.
        -11    1    3    3    0    0  0.43038285054E+02 -0.11906919267E+01  0.16186612192E+02  0.45996936226E+02  0.51100000000E-03 0.  1.
         23    2    1    0    0    0  0.14752639720E+01 -0.26718152444E+02  0.13946722905E+02  0.94824726123E+02  0.89895392155E+02 0.  0.
         11    1    3    3    0    0 -0.41563021082E+02 -0.25527460517E+02 -0.22398892879E+01  0.48827789897E+02  0.51100000000E-03 0. -1.
         22    1    1    0    0    0 -0.14752639720E+01  0.26718152444E+02 -0.13946722905E+02  0.30175273877E+02  0.00000000000E+00 0. -1.
</event>
<event>
 5    1  0.1096978E-009  0.9118800E+02  0.7818608E-02  0.1130116E+00
         25   -1    0    0    0    0  0.00000000000E+00  0.00000000000E+00  0.99999998245E-14  0.12500000000E+03  0.12500000000E+03 0.  0.
        -11    1    3    3    0    0  0.12084605196E+02  0.10674267607E+02 -0.37223373772E+02  0.40565468405E+02  0.51100000000E-03 0.  1.
         23    2    1    0    0    0  0.60986561979E+01  0.20934321355E+02  0.17797586810E+02  0.96854067535E+02  0.92674251461E+02 0.  0.
         11    1    3    3    0    0 -0.59859489977E+01  0.10260053749E+02  0.55020960583E+02  0.56288599130E+02  0.51100000000E-03 0. -1.
         22    1    1    0    0    0 -0.60986561979E+01 -0.20934321355E+02 -0.17797586810E+02  0.28145932465E+02  0.00000000000E+00 0. -1.
</event>
<event>
 5    1  0.1096978E-009  0.9118800E+02  0.7818608E-02  0.1130116E+00
         25   -1    0    0    0    0  0.00000000000E+00  0.00000000000E+00  0.99999998245E-14  0.12500000000E+03  0.12500000000E+03 0.  0.
        -11    1    3    3    0    0  0.13765554465E+02 -0.35428222557E+02  0.31737833833E+02  0.49517063119E+02  0.51100000000E-03 0. -1.
         23    2    1    0    0    0 -0.20963665376E+02 -0.19293363494E+02  0.53791245816E+01  0.96006136474E+02  0.91523407489E+02 0.  0.
         11    1    3    3    0    0 -0.34729219840E+02  0.16134859063E+02 -0.26358709251E+02  0.46489073355E+02  0.51100000000E-03 0.  1.
         22    1    1    0    0    0  0.20963665376E+02  0.19293363494E+02 -0.53791245816E+01  0.28993863526E+02  0.00000000000E+00 0. -1.
</event>
<event>
 5    1  0.1096978E-009  0.9118800E+02  0.7818608E-02  0.1130116E+00
         25   -1    0    0    0    0  0.00000000000E+00  0.00000000000E+00  0.99999998245E-14  0.12500000000E+03  0.12500000000E+03 0.  0.
        -11    1    3    3    0    0  0.89400390850E+01 -0.32357440953E+02  0.11025711178E+01  0.33587854162E+02  0.51100000000E-03 0. -1.
         23    2    1    0    0    0 -0.18244308253E+01  0.23110729265E+02 -0.20474320707E+02  0.94070529209E+02  0.88840487967E+02 0.  0.
         11    1    3    3    0    0 -0.10764469910E+02  0.55468170218E+02 -0.21576891824E+02  0.60482675047E+02  0.51100000000E-03 0.  1.
         22    1    1    0    0    0  0.18244308253E+01 -0.23110729265E+02  0.20474320707E+02  0.30929470791E+02  0.00000000000E+00 0.  1.
</event>
<event>
 5    1  0.1096978E-009  0.9118800E+02  0.7818608E-02  0.1130116E+00
         25   -1    0    0    0    0  0.00000000000E+00  0.00000000000E+00  0.99999998245E-14  0.12500000000E+03  0.12500000000E+03 0.  0.
        -11    1    3    3    0    0 -0.53881894947E+02 -0.22497601955E+02  0.23385169868E+01  0.58436883547E+02  0.51100000000E-03 0.  1.
         23    2    1    0    0    0 -0.18218449540E+02 -0.19842401748E+02  0.12043862182E+02  0.95492586914E+02  0.90819308126E+02 0.  0.
         11    1    3    3    0    0  0.35663445406E+02  0.26552002067E+01  0.97053451951E+01  0.37055703367E+02  0.51100000000E-03 0. -1.
         22    1    1    0    0    0  0.18218449540E+02  0.19842401748E+02 -0.12043862182E+02  0.29507413086E+02  0.00000000000E+00 0.  1.
</event>
<event>
 5    1  0.1096978E-009  0.9118800E+02  0.7818608E-02  0.1130116E+00
         25   -1    0    0    0    0  0.00000000000E+00  0.00000000000E+00  0.99999998245E-14  0.12500000000E+03  0.12500000000E+03 0.  0.
        -11    1    3    3    0    0 -0.33324393873E+02 -0.36465897160E+02  0.31162285474E+02  0.58406891022E+02  0.51100000000E-03 0.  1.
         23    2    1    0    0    0 -0.25293424929E+02 -0.50415803469E+01  0.18656218993E+02  0.93168735744E+02  0.87562457343E+02 0.  0.
         11    1    3    3    0    0  0.80309689444E+01  0.31424316813E+02 -0.12506066480E+02  0.34761844721E+02  0.51100000000E-03 0. -1.
         22    1    1    0    0    0  0.25293424929E+02  0.50415803469E+01 -0.18656218993E+02  0.31831264256E+02  0.00000000000E+00 0.  1.
</event>
<event>
 5    1  0.1096978E-009  0.9118800E+02  0.7818608E-02  0.1130116E+00
         25   -1    0    0    0    0  0.00000000000E+00  0.00000000000E+00  0.99999998245E-14  0.12500000000E+03  0.12500000000E+03 0.  0.
        -11    1    3    3    0    0  0.29947459432E+02 -0.13894924793E+01 -0.25205777661E+02  0.39167744938E+02  0.51100000000E-03 0. -1.
         23    2    1    0    0    0 -0.23106529644E+02 -0.14345817852E+02 -0.11476292008E+02  0.95480184955E+02  0.90802236970E+02 0.  0.
         11    1    3    3    0    0 -0.53053989076E+02 -0.12956325373E+02  0.13729485653E+02  0.56312440017E+02  0.51100000000E-03 0.  1.
         22    1    1    0    0    0  0.23106529644E+02  0.14345817852E+02  0.11476292008E+02  0.29519815045E+02  0.00000000000E+00 0.  1.
</event>
<event>
 5    1  0.1096978E-009  0.9118800E+02  0.7818608E-02  0.1130116E+00
         25   -1    0    0    0    0  0.00000000000E+00  0.00000000000E+00  0.99999998245E-14  0.12500000000E+03  0.12500000000E+03 0.  0.
        -11    1    3    3    0    0  0.36124250600E+01 -0.10697689172E+02 -0.39854106271E+02  0.41422698553E+02  0.51100000000E-03 0. -1.
         23    2    1    0    0    0  0.11392164582E+02 -0.11823406331E+02  0.18477592500E+02  0.10028167126E+03  0.97187539401E+02 0.  0.
         11    1    3    3    0    0  0.77797395222E+01 -0.11257171594E+01  0.58331698772E+02  0.58858972706E+02  0.51100000000E-03 0.  1.
         22    1    1    0    0    0 -0.11392164582E+02  0.11823406331E+02 -0.18477592500E+02  0.24718328741E+02  0.00000000000E+00 0.  1.
</event>
<event>
 5    1  0.1096978E-009  0.9118800E+02  0.7818608E-02  0.1130116E+00
         25   -1    0    0    0    0  0.00000000000E+00  0.00000000000E+00  0.99999998245E-14  0.12500000000E+03  0.12500000000E+03 0.  0.
        -11    1    3    3    0    0  0.11114976437E+02  0.38601065651E+02  0.26533532298E+01  0.40256990129E+02  0.51100000000E-03 0.  1.
         23    2    1    0    0    0  0.38834028276E+01 -0.10196223147E+02  0.27444412438E+02  0.95466297929E+02  0.90783117826E+02 0.  0.
         11    1    3    3    0    0 -0.72315736095E+01 -0.48797288798E+02  0.24791059208E+02  0.55209307800E+02  0.51100000000E-03 0. -1.
         22    1    1    0    0    0 -0.38834028276E+01  0.10196223147E+02 -0.27444412438E+02  0.29533702071E+02  0.00000000000E+00 0. -1.
</event>
<event>
 5    1  0.1096978E-009  0.9118800E+02  0.7818608E-02  0.1130116E+00
         25   -1    0    0    0    0  0.00000000000E+00  0.00000000000E+00  0.99999998245E-14  0.12500000000E+03  0.12500000000E+03 0.  0.
        -11    1    3    3    0    0  0.13096119066E+02  0.17948077000E+02 -0.29938517201E+02  0.37282121922E+02  0.51100000000E-03 0.  1.
         23    2    1    0    0    0 -0.49946536020E+01 -0.29553397852E+02 -0.28158510638E+01  0.94895533447E+02  0.89993796240E+02 0.  0.
         11    1    3    3    0    0 -0.18090772668E+02 -0.47501474853E+02  0.27122666137E+02  0.57613411525E+02  0.51100000000E-03 0. -1.
         22    1    1    0    0    0  0.49946536020E+01  0.29553397852E+02  0.28158510638E+01  0.30104466553E+02  0.00000000000E+00 0. -1.
</event>
<event>
 5    1  0.1096978E-009  0.9118800E+02  0.7818608E-02  0.1130116E+00
         25   -1    0    0    0    0  0.00000000000E+00  0.00000000000E+00  0.99999998245E-14  0.12500000000E+03  0.12500000000E+03 0.  0.
        -11    1    3    3    0    0  0.78092230896E+01  0.24401034644E+02 -0.32509002090E+02  0.41391178699E+02  0.51100000000E-03 0. -1.
         23    2    1    0    0    0 -0.17259005737E+01  0.22107693558E+02  0.20199447855E+02  0.95004224616E+02  0.90144640185E+02 0.  0.
         11    1    3    3    0    0 -0.95351236633E+01 -0.22933410855E+01  0.52708449945E+02  0.53613045917E+02  0.51100000000E-03 0.  1.
         22    1    1    0    0    0  0.17259005737E+01 -0.22107693558E+02 -0.20199447855E+02  0.29995775384E+02  0.00000000000E+00 0.  1.
</event>
<event>
 5    1  0.1096978E-009  0.9118800E+02  0.7818608E-02  0.1130116E+00
         25   -1    0    0    0    0  0.00000000000E+00  0.00000000000E+00  0.99999998245E-14  0.12500000000E+03  0.12500000000E+03 0.  0.
        -11    1    3    3    0    0 -0.36692372446E+02 -0.26627313607E+02 -0.40125932555E+02  0.60542831857E+02  0.51100000000E-03 0.  1.
         23    2    1    0    0    0 -0.23601922632E+02 -0.57377827599E+01 -0.12115115865E+02  0.97856880515E+02  0.94017126784E+02 0.  0.
         11    1    3    3    0    0  0.13090449814E+02  0.20889530847E+02  0.28010816690E+02  0.37314048658E+02  0.51100000000E-03 0. -1.
         22    1    1    0    0    0  0.23601922632E+02  0.57377827599E+01  0.12115115865E+02  0.27143119485E+02  0.00000000000E+00 0.  1.
</event>
<event>
 5    1  0.1096978E-009  0.9118800E+02  0.7818608E-02  0.1130116E+00
         25   -1    0    0    0    0  0.00000000000E+00  0.00000000000E+00  0.99999998245E-14  0.12500000000E+03  0.12500000000E+03 0.  0.
        -11    1    3    3    0    0  0.37655344339E+02 -0.28928760120E+02 -0.25779139321E+02  0.54031121992E+02  0.51100000000E-03 0. -1.
         23    2    1    0    0    0  0.24803028823E+02  0.87332308529E+01 -0.91949367798E+01  0.97143108172E+02  0.93063295896E+02 0.  0.
         11    1    3    3    0    0 -0.12852315515E+02  0.37661990973E+02  0.16584202541E+02  0.43111986179E+02  0.51100000000E-03 0.  1.
         22    1    1    0    0    0 -0.24803028823E+02 -0.87332308529E+01  0.91949367798E+01  0.27856891828E+02  0.00000000000E+00 0. -1.
</event>
<event>
 5    1  0.1096978E-009  0.9118800E+02  0.7818608E-02  0.1130116E+00
         25   -1    0    0    0    0  0.00000000000E+00  0.00000000000E+00  0.99999998245E-14  0.12500000000E+03  0.12500000000E+03 0.  0.
        -11    1    3    3    0    0 -0.50957317501E+02 -0.12164342712E+01 -0.28192931837E+02  0.58249200210E+02  0.51100000000E-03 0. -1.
         23    2    1    0    0    0 -0.25330348691E+02 -0.16149810539E+02 -0.87626165764E+01  0.93707406715E+02  0.88328091108E+02 0.  0.
         11    1    3    3    0    0  0.25626968811E+02 -0.14933376268E+02  0.19430315260E+02  0.35458206505E+02  0.51100000000E-03 0.  1.
         22    1    1    0    0    0  0.25330348691E+02  0.16149810539E+02  0.87626165764E+01  0.31292593285E+02  0.00000000000E+00 0. -1.
</event>
<event>
 5    1  0.1096978E-009  0.9118800E+02  0.7818608E-02  0.1130116E+00
         25   -1    0    0    0    0  0.00000000000E+00  0.00000000000E+00  0.99999998245E-14  0.12500000000E+03  0.12500000000E+03 0.  0.
        -11    1    3    3    0    0  0.54085537730E+02  0.48196022490E+01 -0.17322785482E+02  0.56996077536E+02  0.51100000000E-03 0.  1.
         23    2    1    0    0    0  0.17360241347E+02  0.17693909654E+02 -0.15097357732E+02  0.95976171360E+02  0.91482472856E+02 0.  0.
         11    1    3    3    0    0 -0.36725296383E+02  0.12874307405E+02  0.22254277502E+01  0.38980093823E+02  0.51100000000E-03 0. -1.
         22    1    1    0    0    0 -0.17360241347E+02 -0.17693909654E+02  0.15097357732E+02  0.29023828640E+02  0.00000000000E+00 0.  1.
</event>
<event>
 5    1  0.1096978E-009  0.9118800E+02  0.7818608E-02  0.1130116E+00
         25   -1    0    0    0    0  0.00000000000E+00  0.00000000000E+00  0.99999998245E-14  0.12500000000E+03  0.12500000000E+03 0.  0.
        -11    1    3    3    0    0 -0.96608746788E+01 -0.59717683490E+02  0.14780065489E+02  0.62273465915E+02  0.51100000000E-03 0.  1.
         23    2    1    0    0    0 -0.19967850111E+01 -0.26950577579E+02  0.35820194017E+01  0.97739192139E+02  0.93860524368E+02 0.  0.
         11    1    3    3    0    0  0.76640896677E+01  0.32767105910E+02 -0.11198046088E+02  0.35465726224E+02  0.51100000000E-03 0. -1.
         22    1    1    0    0    0  0.19967850111E+01  0.26950577579E+02 -0.35820194017E+01  0.27260807861E+02  0.00000000000E+00 0.  1.
</event>
<event>
 5    1  0.1096978E-009  0.9118800E+02  0.7818608E-02  0.1130116E+00
         25   -1    0    0    0    0  0.00000000000E+00  0.00000000000E+00  0.99999998245E-14  0.12500000000E+03  0.12500000000E+03 0.  0.
        -11    1    3    3    0    0 -0.51115074502E+02 -0.23456796328E+02  0.16428373559E+02  0.58590644247E+02  0.51100000000E-03 0. -1.
         23    2    1    0    0    0 -0.15636607051E+02 -0.13399531817E+02  0.20806559552E+02  0.95726055043E+02  0.91140077686E+02 0.  0.
         11    1    3    3    0    0  0.35478467451E+02  0.10057264510E+02  0.43781859925E+01  0.37135410795E+02  0.51100000000E-03 0.  1.
         22    1    1    0    0    0  0.15636607051E+02  0.13399531817E+02 -0.20806559552E+02  0.29273944957E+02  0.00000000000E+00 0. -1.
</event>
<event>
 5    1  0.1096978E-009  0.9118800E+02  0.7818608E-02  0.1130116E+00
         25   -1    0    0    0    0  0.00000000000E+00  0.00000000000E+00  0.99999998245E-14  0.12500000000E+03  0.12500000000E+03 0.  0.
        -11    1    3    3    0    0 -0.39535957810E+02 -0.23969505885E+02  0.13875393973E+02  0.48271686634E+02  0.51100000000E-03 0.  1.
         23    2    1    0    0    0 -0.29924996540E+02  0.12590564739E+02 -0.74725664567E+01  0.91685333743E+02  0.85418577814E+02 0.  0.
         11    1    3    3    0    0  0.96109612699E+01  0.36560070624E+02 -0.21347960430E+02  0.43413647109E+02  0.51100000000E-03 0. -1.
         22    1    1    0    0    0  0.29924996540E+02 -0.12590564739E+02  0.74725664567E+01  0.33314666257E+02  0.00000000000E+00 0.  1.
</event>
<event>
 5    1  0.1096978E-009  0.9118800E+02  0.7818608E-02  0.1130116E+00
         25   -1    0    0    0    0  0.00000000000E+00  0.00000000000E+00  0.99999998245E-14  0.12500000000E+03  0.12500000000E+03 0.  0.
        -11    1    3    3    0    0  0.24832259937E+02  0.32269608551E+02 -0.17134638300E+02  0.44176516381E+02  0.51100000000E-03 0. -1.
         23    2    1    0    0    0 -0.10642794411E+02 -0.41932088126E+01 -0.26711081751E+02  0.95942574764E+02  0.91436555551E+02 0.  0.
         11    1    3    3    0    0 -0.35475054348E+02 -0.36462817364E+02 -0.95764434503E+01  0.51766058383E+02  0.51100000000E-03 0.  1.
         22    1    1    0    0    0  0.10642794411E+02  0.41932088126E+01  0.26711081751E+02  0.29057425236E+02  0.00000000000E+00 0.  1.
</event>
<event>
 5    1  0.1096978E-009  0.9118800E+02  0.7818608E-02  0.1130116E+00
         25   -1    0    0    0    0  0.00000000000E+00  0.00000000000E+00  0.99999998245E-14  0.12500000000E+03  0.12500000000E+03 0.  0.
        -11    1    3    3    0    0 -0.32150086268E+02  0.23496266308E+02  0.19635407746E+02  0.44398781685E+02  0.51100000000E-03 0. -1.
         23    2    1    0    0    0  0.12991678796E+02  0.11072926659E+01  0.26705617031E+02  0.95281322438E+02  0.90528065314E+02 0.  0.
         11    1    3    3    0    0  0.45141765065E+02 -0.22388973642E+02  0.70702092856E+01  0.50882540753E+02  0.51100000000E-03 0.  1.
         22    1    1    0    0    0 -0.12991678796E+02 -0.11072926659E+01 -0.26705617031E+02  0.29718677562E+02  0.00000000000E+00 0.  1.
</event>
<event>
 5    1  0.1096978E-009  0.9118800E+02  0.7818608E-02  0.1130116E+00
         25   -1    0    0    0    0  0.00000000000E+00  0.00000000000E+00  0.99999998245E-14  0.12500000000E+03  0.12500000000E+03 0.  0.
        -11    1    3    3    0    0  0.15678463172E+01 -0.84005384927E+01 -0.43471006042E+02  0.44302997140E+02  0.51100000000E-03 0. -1.
         23    2    1    0    0    0  0.12523076920E+02  0.25948631674E+02 -0.75108769403E+01  0.95224637471E+02  0.90449761569E+02 0.  0.
         11    1    3    3    0    0  0.10955230603E+02  0.34349170167E+02  0.35960129102E+02  0.50921640331E+02  0.51100000000E-03 0.  1.
         22    1    1    0    0    0 -0.12523076920E+02 -0.25948631674E+02  0.75108769403E+01  0.29775362529E+02  0.00000000000E+00 0.  1.
</event>
<event>
 5    1  0.1096978E-009  0.9118800E+02  0.7818608E-02  0.1130116E+00
         25   -1    0    0    0    0  0.00000000000E+00  0.00000000000E+00  0.99999998245E-14  0.12500000000E+03  0.12500000000E+03 0.  0.
        -11    1    3    3    0    0  0.33598141482E+01 -0.24384615380E+02  0.31657108647E+02  0.40100752443E+02  0.51100000000E-03 0. -1.
         23    2    1    0    0    0 -0.17534957031E+02 -0.15795760306E+02 -0.18435935989E+02  0.95052303970E+02  0.90211285284E+02 0.  0.
         11    1    3    3    0    0 -0.20894771179E+02  0.85888550744E+01 -0.50093044636E+02  0.54951551527E+02  0.51100000000E-03 0.  1.
         22    1    1    0    0    0  0.17534957031E+02  0.15795760306E+02  0.18435935989E+02  0.29947696030E+02  0.00000000000E+00 0.  1.
</event>
<event>
 5    1  0.1096978E-009  0.9118800E+02  0.7818608E-02  0.1130116E+00
         25   -1    0    0    0    0  0.00000000000E+00  0.00000000000E+00  0.99999998245E-14  0.12500000000E+03  0.12500000000E+03 0.  0.
        -11    1    3    3    0    0  0.37553111193E+02 -0.26198080427E+02  0.76421163445E-01  0.45788441978E+02  0.51100000000E-03 0.  1.
         23    2    1    0    0    0 -0.54538376789E+01 -0.13756102005E+02 -0.24137551427E+02  0.96687527895E+02  0.92449348152E+02 0.  0.
         11    1    3    3    0    0 -0.43006948871E+02  0.12441978422E+02 -0.24213972591E+02  0.50899085917E+02  0.51100000000E-03 0. -1.
         22    1    1    0    0    0  0.54538376789E+01  0.13756102005E+02  0.24137551427E+02  0.28312472105E+02  0.00000000000E+00 0. -1.
</event>
<event>
 5    1  0.1096978E-009  0.9118800E+02  0.7818608E-02  0.1130116E+00
         25   -1    0    0    0    0  0.00000000000E+00  0.00000000000E+00  0.99999998245E-14  0.12500000000E+03  0.12500000000E+03 0.  0.
        -11    1    3    3    0    0  0.13201661685E+02  0.12486587329E+02 -0.44184278557E+02  0.47774985151E+02  0.51100000000E-03 0.  1.
         23    2    1    0    0    0 -0.15824031964E+02  0.23095847357E+02 -0.69687487916E+01  0.96148975539E+02  0.91718285444E+02 0.  0.
         11    1    3    3    0    0 -0.29025693648E+02  0.10609260028E+02  0.37215529765E+02  0.48373990388E+02  0.51100000000E-03 0. -1.
         22    1    1    0    0    0  0.15824031964E+02 -0.23095847357E+02  0.69687487916E+01  0.28851024461E+02  0.00000000000E+00 0.  1.
</event>
<event>
 5    1  0.1096978E-009  0.9118800E+02  0.7818608E-02  0.1130116E+00
         25   -1    0    0    0    0  0.00000000000E+00  0.00000000000E+00  0.99999998245E-14  0.12500000000E+03  0.12500000000E+03 0.  0.
        -11    1    3    3    0    0 -0.43946686566E+02 -0.87657688686E+01  0.41127012341E+02  0.60824181938E+02  0.51100000000E-03 0. -1.
         23    2    1    0    0    0 -0.13144704189E+02 -0.46718580049E+01  0.26246765201E+02  0.95276235283E+02  0.90521040763E+02 0.  0.
         11    1    3    3    0    0  0.30801982377E+02  0.40939108637E+01 -0.14880247141E+02  0.34452053346E+02  0.51100000000E-03 0.  1.
         22    1    1    0    0    0  0.13144704189E+02  0.46718580049E+01 -0.26246765201E+02  0.29723764717E+02  0.00000000000E+00 0. -1.
</event>
<event>
 5    1  0.1096978E-009  0.9118800E+02  0.7818608E-02  0.1130116E+00
         25   -1    0    0    0    0  0.00000000000E+00  0.00000000000E+00  0.99999998245E-14  0.12500000000E+03  0.12500000000E+03 0.  0.
        -11    1    3    3    0    0 -0.24445663517E+02  0.19672802107E+02 -0.13854784417E+02  0.34301088307E+02  0.51100000000E-03 0. -1.
         23    2    1    0    0    0  0.29473832845E+02 -0.47071250700E+01  0.32294214400E+00  0.95150910556E+02  0.90347814800E+02 0.  0.
         11    1    3    3    0    0  0.53919496362E+02 -0.24379927177E+02  0.14177726561E+02  0.60849822249E+02  0.51100000000E-03 0.  1.
         22    1    1    0    0    0 -0.29473832845E+02  0.47071250700E+01 -0.32294214400E+00  0.29849089444E+02  0.00000000000E+00 0.  1.
</event>
<event>
 5    1  0.1096978E-009  0.9118800E+02  0.7818608E-02  0.1130116E+00
         25   -1    0    0    0    0  0.00000000000E+00  0.00000000000E+00  0.99999998245E-14  0.12500000000E+03  0.12500000000E+03 0.  0.
        -11    1    3    3    0    0  0.33140949855E+02 -0.13547176358E+02 -0.35333885123E+02  0.50302405337E+02  0.51100000000E-03 0.  1.
         23    2    1    0    0    0 -0.50385131913E+01 -0.25179945814E+02 -0.16843407822E+02  0.94289795289E+02  0.89148465058E+02 0.  0.
         11    1    3    3    0    0 -0.38179463046E+02 -0.11632769455E+02  0.18490477301E+02  0.43987389952E+02  0.51100000000E-03 0. -1.
         22    1    1    0    0    0  0.50385131913E+01  0.25179945814E+02  0.16843407822E+02  0.30710204711E+02  0.00000000000E+00 0.  1.
</event>
<event>
 5    1  0.1096978E-009  0.9118800E+02  0.7818608E-02  0.1130116E+00
         25   -1    0    0    0    0  0.00000000000E+00  0.00000000000E+00  0.99999998245E-14  0.12500000000E+03  0.12500000000E+03 0.  0.
        -11    1    3    3    0    0  0.55472196554E+02  0.19657583082E+02  0.17741866471E+02  0.61468357626E+02  0.51100000000E-03 0.  1.
         23    2    1    0    0    0  0.23509100102E+02  0.16657058878E+02  0.10099676057E+02  0.94469050874E+02  0.89399455918E+02 0.  0.
         11    1    3    3    0    0 -0.31963096452E+02 -0.30005242033E+01 -0.76421904136E+01  0.33000693248E+02  0.51100000000E-03 0. -1.
         22    1    1    0    0    0 -0.23509100102E+02 -0.16657058878E+02 -0.10099676057E+02  0.30530949126E+02  0.00000000000E+00 0.  1.
</event>
<event>
 5    1  0.1096978E-009  0.9118800E+02  0.7818608E-02  0.1130116E+00
         25   -1    0    0    0    0  0.00000000000E+00  0.00000000000E+00  0.99999998245E-14  0.12500000000E+03  0.12500000000E+03 0.  0.
        -11    1    3    3    0    0  0.29569612210E+02  0.48240237686E+00 -0.49310729385E+02  0.57499067045E+02  0.51100000000E-03 0. -1.
         23    2    1    0    0    0  0.23570226428E+02  0.13619232488E+02 -0.16960142521E+02  0.92926872592E+02  0.87216501580E+02 0.  0.
         11    1    3    3    0    0 -0.59993857825E+01  0.13136830111E+02  0.32350586864E+02  0.35427805546E+02  0.51100000000E-03 0.  1.
         22    1    1    0    0    0 -0.23570226428E+02 -0.13619232488E+02  0.16960142521E+02  0.32073127408E+02  0.00000000000E+00 0. -1.
</event>
<event>
 5    1  0.1096978E-009  0.9118800E+02  0.7818608E-02  0.1130116E+00
         25   -1    0    0    0    0  0.00000000000E+00  0.00000000000E+00  0.99999998245E-14  0.12500000000E+03  0.12500000000E+03 0.  0.
        -11    1    3    3    0    0 -0.34633677532E+02 -0.10543586641E+02  0.26300757047E+02  0.44748057613E+02  0.51100000000E-03 0.  1.
         23    2    1    0    0    0  0.96635741678E+01  0.19349369672E+02  0.12803105537E+02  0.99866311775E+02  0.96651838801E+02 0.  0.
         11    1    3    3    0    0  0.44297251700E+02  0.29892956314E+02 -0.13497651510E+02  0.55118254162E+02  0.51100000000E-03 0. -1.
         22    1    1    0    0    0 -0.96635741678E+01 -0.19349369672E+02 -0.12803105537E+02  0.25133688225E+02  0.00000000000E+00 0. -1.
</event>
<event>
 5    1  0.1096978E-009  0.9118800E+02  0.7818608E-02  0.1130116E+00
         25   -1    0    0    0    0  0.00000000000E+00  0.00000000000E+00  0.99999998245E-14  0.12500000000E+03  0.12500000000E+03 0.  0.
        -11    1    3    3    0    0  0.17289339549E+02 -0.27482773759E+02  0.10901770601E+02  0.34250149168E+02  0.51100000000E-03 0.  1.
         23    2    1    0    0    0 -0.13728267612E+02  0.23171949340E+02 -0.85354415231E+01  0.96746534197E+02  0.92529095691E+02 0.  0.
         11    1    3    3    0    0 -0.31017607161E+02  0.50654723099E+02 -0.19437212124E+02  0.62496385029E+02  0.51100000000E-03 0. -1.
         22    1    1    0    0    0  0.13728267612E+02 -0.23171949340E+02  0.85354415231E+01  0.28253465803E+02  0.00000000000E+00 0. -1.
</event>
<event>
 5    1  0.1096978E-009  0.9118800E+02  0.7818608E-02  0.1130116E+00
         25   -1    0    0    0    0  0.00000000000E+00  0.00000000000E+00  0.99999998245E-14  0.12500000000E+03  0.12500000000E+03 0.  0.
        -11    1    3    3    0    0 -0.42583614807E+02 -0.23737463097E+02  0.49395977680E+01  0.49002357399E+02  0.51100000000E-03 0. -1.
         23    2    1    0    0    0  0.22516195777E+01 -0.24268394122E+02  0.16818684508E+02  0.95387622646E+02  0.90674724491E+02 0.  0.
         11    1    3    3    0    0  0.44835234384E+02 -0.53093102548E+00  0.11879086740E+02  0.46385265247E+02  0.51100000000E-03 0.  1.
         22    1    1    0    0    0 -0.22516195777E+01  0.24268394122E+02 -0.16818684508E+02  0.29612377354E+02  0.00000000000E+00 0. -1.
</event>
<event>
 5    1  0.1096978E-009  0.9118800E+02  0.7818608E-02  0.1130116E+00
         25   -1    0    0    0    0  0.00000000000E+00  0.00000000000E+00  0.99999998245E-14  0.12500000000E+03  0.12500000000E+03 0.  0.
        -11    1    3    3    0    0  0.22077960978E+02  0.16824530512E+02 -0.45625996385E+02  0.53406298639E+02  0.51100000000E-03 0.  1.
         23    2    1    0    0    0  0.27771739633E+02 -0.24457146947E+01 -0.81091521898E+01  0.95965375983E+02  0.91467721058E+02 0.  0.
         11    1    3    3    0    0  0.56937786548E+01 -0.19270245207E+02  0.37516844195E+02  0.42559077344E+02  0.51100000000E-03 0. -1.
         22    1    1    0    0    0 -0.27771739633E+02  0.24457146947E+01  0.81091521898E+01  0.29034624017E+02  0.00000000000E+00 0.  1.
</event>
<event>
 5    1  0.1096978E-009  0.9118800E+02  0.7818608E-02  0.1130116E+00
         25   -1    0    0    0    0  0.00000000000E+00  0.00000000000E+00  0.99999998245E-14  0.12500000000E+03  0.12500000000E+03 0.  0.
        -11    1    3    3    0    0 -0.90265333837E+01 -0.37571836049E+02 -0.20005902281E+01  0.38692680581E+02  0.51100000000E-03 0. -1.
         23    2    1    0    0    0  0.11863026921E+02  0.77443044323E+01  0.25618301357E+02  0.95725386027E+02  0.91139160117E+02 0.  0.
         11    1    3    3    0    0  0.20889560305E+02  0.45316140481E+02  0.27618891585E+02  0.57032705446E+02  0.51100000000E-03 0.  1.
         22    1    1    0    0    0 -0.11863026921E+02 -0.77443044323E+01 -0.25618301357E+02  0.29274613973E+02  0.00000000000E+00 0.  1.
</event>
<event>
 5    1  0.1096978E-009  0.9118800E+02  0.7818608E-02  0.1130116E+00
         25   -1    0    0    0    0  0.00000000000E+00  0.00000000000E+00  0.99999998245E-14  0.12500000000E+03  0.12500000000E+03 0.  0.
        -11    1    3    3    0    0  0.45358406934E+02  0.20894177815E+01  0.88242681240E+01  0.46256009928E+02  0.51100000000E-03 0.  1.
         23    2    1    0    0    0  0.11788485542E+02 -0.19824585014E+02 -0.19051428532E+02  0.95084460702E+02  0.90255831809E+02 0.  0.
         11    1    3    3    0    0 -0.33569921392E+02 -0.21914002796E+02 -0.27875696656E+02  0.48828450775E+02  0.51100000000E-03 0. -1.
         22    1    1    0    0    0 -0.11788485542E+02  0.19824585014E+02  0.19051428532E+02  0.29915539298E+02  0.00000000000E+00 0. -1.
</event>
<event>
 5    1  0.1096978E-009  0.9118800E+02  0.7818608E-02  0.1130116E+00
         25   -1    0    0    0    0  0.00000000000E+00  0.00000000000E+00  0.99999998245E-14  0.12500000000E+03  0.12500000000E+03 0.  0.
        -11    1    3    3    0    0 -0.22192213894E+02 -0.45174803721E+02 -0.14716190140E+02  0.52438759531E+02  0.51100000000E-03 0.  1.
         23    2    1    0    0    0 -0.17983127100E+02 -0.34703495389E+01 -0.23439963362E+02  0.95253267934E+02  0.90489319720E+02 0.  0.
         11    1    3    3    0    0  0.42090867934E+01  0.41704454182E+02 -0.87237732221E+01  0.42814508402E+02  0.51100000000E-03 0. -1.
         22    1    1    0    0    0  0.17983127100E+02  0.34703495389E+01  0.23439963362E+02  0.29746732066E+02  0.00000000000E+00 0. -1.
</event>
<event>
 5    1  0.1096978E-009  0.9118800E+02  0.7818608E-02  0.1130116E+00
         25   -1    0    0    0    0  0.00000000000E+00  0.00000000000E+00  0.99999998245E-14  0.12500000000E+03  0.12500000000E+03 0.  0.
        -11    1    3    3    0    0 -0.22988574496E+02 -0.17107213724E+02 -0.23113211816E+02  0.36815103959E+02  0.51100000000E-03 0.  1.
         23    2    1    0    0    0  0.41464400656E+01 -0.85009895255E+01  0.28068453850E+02  0.95380785128E+02  0.90665298113E+02 0.  0.
         11    1    3    3    0    0  0.27135014562E+02  0.86062241985E+01  0.51181665666E+02  0.58565681169E+02  0.51100000000E-03 0. -1.
         22    1    1    0    0    0 -0.41464400656E+01  0.85009895255E+01 -0.28068453850E+02  0.29619214872E+02  0.00000000000E+00 0. -1.
</event>
<event>
 5    1  0.1096978E-009  0.9118800E+02  0.7818608E-02  0.1130116E+00
         25   -1    0    0    0    0  0.00000000000E+00  0.00000000000E+00  0.99999998245E-14  0.12500000000E+03  0.12500000000E+03 0.  0.
        -11    1    3    3    0    0 -0.26743632642E+02 -0.21253363542E+02  0.14809455681E+02  0.37232342481E+02  0.51100000000E-03 0. -1.
         23    2    1    0    0    0  0.31029068317E+01  0.28317974943E+02  0.23960904331E+01  0.96411943314E+02  0.92075978564E+02 0.  0.
         11    1    3    3    0    0  0.29846539474E+02  0.49571338485E+02 -0.12413365248E+02  0.59179600834E+02  0.51100000000E-03 0.  1.
         22    1    1    0    0    0 -0.31029068317E+01 -0.28317974943E+02 -0.23960904331E+01  0.28588056686E+02  0.00000000000E+00 0.  1.
</event>
<event>
 5    1  0.1096978E-009  0.9118800E+02  0.7818608E-02  0.1130116E+00
         25   -1    0    0    0    0  0.00000000000E+00  0.00000000000E+00  0.99999998245E-14  0.12500000000E+03  0.12500000000E+03 0.  0.
        -11    1    3    3    0    0  0.31330234269E+02 -0.25646716542E+02 -0.12589069552E+02  0.42400734913E+02  0.51100000000E-03 0. -1.
         23    2    1    0    0    0 -0.89548508917E+01  0.14609489455E+02 -0.18649431002E+02  0.99673574801E+02  0.96402249457E+02 0.  0.
         11    1    3    3    0    0 -0.40285085161E+02  0.40256205997E+02 -0.60603614499E+01  0.57272839888E+02  0.51100000000E-03 0.  1.
         22    1    1    0    0    0  0.89548508917E+01 -0.14609489455E+02  0.18649431002E+02  0.25326425199E+02  0.00000000000E+00 0.  1.
</event>
<event>
 5    1  0.1096978E-009  0.9118800E+02  0.7818608E-02  0.1130116E+00
         25   -1    0    0    0    0  0.00000000000E+00  0.00000000000E+00  0.99999998245E-14  0.12500000000E+03  0.12500000000E+03 0.  0.
        -11    1    3    3    0    0 -0.30656346207E+02 -0.19146394593E+01  0.24428679947E+02  0.39245863619E+02  0.51100000000E-03 0. -1.
         23    2    1    0    0    0 -0.71197544238E+01  0.16851492164E+02 -0.23117375954E+02  0.95519892094E+02  0.90856882091E+02 0.  0.
         11    1    3    3    0    0  0.23536591783E+02  0.18766131623E+02 -0.47546055900E+02  0.56274028475E+02  0.51100000000E-03 0.  1.
         22    1    1    0    0    0  0.71197544238E+01 -0.16851492164E+02  0.23117375954E+02  0.29480107906E+02  0.00000000000E+00 0.  1.
</event>
<event>
 5    1  0.1096978E-009  0.9118800E+02  0.7818608E-02  0.1130116E+00
         25   -1    0    0    0    0  0.00000000000E+00  0.00000000000E+00  0.99999998245E-14  0.12500000000E+03  0.12500000000E+03 0.  0.
        -11    1    3    3    0    0 -0.55066554803E+02 -0.14170192082E+02  0.10597631479E+02  0.57839688750E+02  0.51100000000E-03 0. -1.
         23    2    1    0    0    0 -0.16922782203E+02 -0.10999349695E+02  0.19280529191E+02  0.97087546559E+02  0.92988637153E+02 0.  0.
         11    1    3    3    0    0  0.38143772600E+02  0.31708423873E+01  0.86828977127E+01  0.39247857808E+02  0.51100000000E-03 0.  1.
         22    1    1    0    0    0  0.16922782203E+02  0.10999349695E+02 -0.19280529191E+02  0.27912453441E+02  0.00000000000E+00 0. -1.
</event>
<event>
 5    1  0.1096978E-009  0.9118800E+02  0.7818608E-02  0.1130116E+00
         25   -1    0    0    0    0  0.00000000000E+00  0.00000000000E+00  0.99999998245E-14  0.12500000000E+03  0.12500000000E+03 0.  0.
        -11    1    3    3    0    0 -0.10545776213E+02  0.23319594704E+02  0.25644048763E+02  0.36230292992E+02  0.51100000000E-03 0.  1.
         23    2    1    0    0    0 -0.15798028869E+02 -0.19780040570E+02 -0.14891888176E+02  0.95630014393E+02  0.91008261154E+02 0.  0.
         11    1    3    3    0    0 -0.52522526560E+01 -0.43099635274E+02 -0.40535936939E+02  0.59399721401E+02  0.51100000000E-03 0. -1.
         22    1    1    0    0    0  0.15798028869E+02  0.19780040570E+02  0.14891888176E+02  0.29369985607E+02  0.00000000000E+00 0. -1.
</event>
<event>
 5    1  0.1096978E-009  0.9118800E+02  0.7818608E-02  0.1130116E+00
         25   -1    0    0    0    0  0.00000000000E+00  0.00000000000E+00  0.99999998245E-14  0.12500000000E+03  0.12500000000E+03 0.  0.
        -11    1    3    3    0    0 -0.21956018456E+02 -0.24237994777E+02 -0.12428648985E+02  0.34985975091E+02  0.51100000000E-03 0. -1.
         23    2    1    0    0    0  0.26945976123E+02  0.10749365683E+02 -0.33616501636E+01  0.95794945923E+02  0.91234513649E+02 0.  0.
         11    1    3    3    0    0  0.48901994578E+02  0.34987360460E+02  0.90669988213E+01  0.60808970832E+02  0.51100000000E-03 0.  1.
         22    1    1    0    0    0 -0.26945976123E+02 -0.10749365683E+02  0.33616501636E+01  0.29205054077E+02  0.00000000000E+00 0.  1.
</event>
<event>
 5    1  0.1096978E-009  0.9118800E+02  0.7818608E-02  0.1130116E+00
         25   -1    0    0    0    0  0.00000000000E+00  0.00000000000E+00  0.99999998245E-14  0.12500000000E+03  0.12500000000E+03 0.  0.
        -11    1    3    3    0    0 -0.90210787202E+01  0.56001140545E+02 -0.17960346130E+02  0.59498585168E+02  0.51100000000E-03 0. -1.
         23    2    1    0    0    0 -0.59364247283E+01  0.26606413474E+02  0.54464394856E+01  0.97200610086E+02  0.93140498826E+02 0.  0.
         11    1    3    3    0    0  0.30846539920E+01 -0.29394727071E+02  0.23406785616E+02  0.37702024918E+02  0.51100000000E-03 0.  1.
         22    1    1    0    0    0  0.59364247283E+01 -0.26606413474E+02 -0.54464394856E+01  0.27799389914E+02  0.00000000000E+00 0. -1.
</event>
<event>
 5    1  0.1096978E-009  0.9118800E+02  0.7818608E-02  0.1130116E+00
         25   -1    0    0    0    0  0.00000000000E+00  0.00000000000E+00  0.99999998245E-14  0.12500000000E+03  0.12500000000E+03 0.  0.
        -11    1    3    3    0    0 -0.13139861369E+02 -0.59346744167E+02  0.14457322442E+02  0.62479646065E+02  0.51100000000E-03 0.  1.
         23    2    1    0    0    0 -0.58182637488E+01 -0.30567093140E+02  0.67376284314E+01  0.93162993027E+02  0.87554258930E+02 0.  0.
         11    1    3    3    0    0  0.73215976200E+01  0.28779651027E+02 -0.77196940106E+01  0.30683346962E+02  0.51100000000E-03 0. -1.
         22    1    1    0    0    0  0.58182637488E+01  0.30567093140E+02 -0.67376284314E+01  0.31837006973E+02  0.00000000000E+00 0.  1.
</event>
<event>
 5    1  0.1096978E-009  0.9118800E+02  0.7818608E-02  0.1130116E+00
         25   -1    0    0    0    0  0.00000000000E+00  0.00000000000E+00  0.99999998245E-14  0.12500000000E+03  0.12500000000E+03 0.  0.
        -11    1    3    3    0    0  0.21794996347E+02  0.18312620226E+02  0.44727710513E+02  0.53018317715E+02  0.51100000000E-03 0. -1.
         23    2    1    0    0    0 -0.12112245239E+01 -0.10359270244E+02  0.31056306318E+02  0.92239113154E+02  0.86225160415E+02 0.  0.
         11    1    3    3    0    0 -0.23006220871E+02 -0.28671890470E+02 -0.13671404196E+02  0.39220795439E+02  0.51100000000E-03 0.  1.
         22    1    1    0    0    0  0.12112245239E+01  0.10359270244E+02 -0.31056306318E+02  0.32760886846E+02  0.00000000000E+00 0. -1.
</event>
<event>
 5    1  0.1096978E-009  0.9118800E+02  0.7818608E-02  0.1130116E+00
         25   -1    0    0    0    0  0.00000000000E+00  0.00000000000E+00  0.99999998245E-14  0.12500000000E+03  0.12500000000E+03 0.  0.
        -11    1    3    3    0    0 -0.12511912736E+02  0.49213406550E+02 -0.23431760173E+02  0.55924544966E+02  0.51100000000E-03 0. -1.
         23    2    1    0    0    0  0.13318208539E+02  0.20558936835E+02 -0.17357286654E+02  0.94978008686E+02  0.90108280260E+02 0.  0.
         11    1    3    3    0    0  0.25830121275E+02 -0.28654469716E+02  0.60744735184E+01  0.39053463720E+02  0.51100000000E-03 0.  1.
         22    1    1    0    0    0 -0.13318208539E+02 -0.20558936835E+02  0.17357286654E+02  0.30021991314E+02  0.00000000000E+00 0.  1.
</event>
<event>
 5    1  0.1096978E-009  0.9118800E+02  0.7818608E-02  0.1130116E+00
         25   -1    0    0    0    0  0.00000000000E+00  0.00000000000E+00  0.99999998245E-14  0.12500000000E+03  0.12500000000E+03 0.  0.
        -11    1    3    3    0    0  0.34793900558E+02 -0.35888850497E+02 -0.31720755738E+02  0.59201616962E+02  0.51100000000E-03 0.  1.
         23    2    1    0    0    0  0.22338568561E+02 -0.39608882726E+01 -0.17678974201E+02  0.96238108371E+02  0.91839681472E+02 0.  0.
         11    1    3    3    0    0 -0.12455331997E+02  0.31927962224E+02  0.14041781537E+02  0.37036491410E+02  0.51100000000E-03 0. -1.
         22    1    1    0    0    0 -0.22338568561E+02  0.39608882726E+01  0.17678974201E+02  0.28761891629E+02  0.00000000000E+00 0.  1.
</event>
<event>
 5    1  0.1096978E-009  0.9118800E+02  0.7818608E-02  0.1130116E+00
         25   -1    0    0    0    0  0.00000000000E+00  0.00000000000E+00  0.99999998245E-14  0.12500000000E+03  0.12500000000E+03 0.  0.
        -11    1    3    3    0    0 -0.33448786715E+02  0.51177796065E+02  0.32802091916E+01  0.61227019487E+02  0.51100000000E-03 0. -1.
         23    2    1    0    0    0 -0.22711585143E+02  0.18553485349E+02  0.22278688421E+01  0.95588925252E+02  0.90951807640E+02 0.  0.
         11    1    3    3    0    0  0.10737201572E+02 -0.32624310716E+02 -0.10523403494E+01  0.34361905764E+02  0.51100000000E-03 0.  1.
         22    1    1    0    0    0  0.22711585143E+02 -0.18553485349E+02 -0.22278688421E+01  0.29411074748E+02  0.00000000000E+00 0. -1.
</event>
<event>
 5    1  0.1096978E-009  0.9118800E+02  0.7818608E-02  0.1130116E+00
         25   -1    0    0    0    0  0.00000000000E+00  0.00000000000E+00  0.99999998245E-14  0.12500000000E+03  0.12500000000E+03 0.  0.
        -11    1    3    3    0    0  0.56178258877E+02  0.36357899545E+01  0.12778682870E+02  0.57727900319E+02  0.51100000000E-03 0.  1.
         23    2    1    0    0    0  0.24622926333E+02  0.15460905143E+02 -0.44696663526E+01  0.95583915856E+02  0.90944922696E+02 0.  0.
         11    1    3    3    0    0 -0.31555332544E+02  0.11825115188E+02 -0.17248349223E+02  0.37856015537E+02  0.51100000000E-03 0. -1.
         22    1    1    0    0    0 -0.24622926333E+02 -0.15460905143E+02  0.44696663526E+01  0.29416084144E+02  0.00000000000E+00 0.  1.
</event>
<event>
 5    1  0.1096978E-009  0.9118800E+02  0.7818608E-02  0.1130116E+00
         25   -1    0    0    0    0  0.00000000000E+00  0.00000000000E+00  0.99999998245E-14  0.12500000000E+03  0.12500000000E+03 0.  0.
        -11    1    3    3    0    0  0.45861068642E+02 -0.77380755103E+01 -0.38559341283E+02  0.60414718654E+02  0.51100000000E-03 0.  1.
         23    2    1    0    0    0  0.20603264240E+02  0.77431735496E+01 -0.13821289295E+02  0.99010015934E+02  0.95537971423E+02 0.  0.
         11    1    3    3    0    0 -0.25257804402E+02  0.15481249060E+02  0.24738051988E+02  0.38595297280E+02  0.51100000000E-03 0. -1.
         22    1    1    0    0    0 -0.20603264240E+02 -0.77431735496E+01  0.13821289295E+02  0.25989984066E+02  0.00000000000E+00 0.  1.
</event>
<event>
 5    1  0.1096978E-009  0.9118800E+02  0.7818608E-02  0.1130116E+00
         25   -1    0    0    0    0  0.00000000000E+00  0.00000000000E+00  0.99999998245E-14  0.12500000000E+03  0.12500000000E+03 0.  0.
        -11    1    3    3    0    0 -0.31710813600E+02  0.73598607011E+01 -0.25977492782E+02  0.41648209808E+02  0.51100000000E-03 0. -1.
         23    2    1    0    0    0 -0.16704701777E+02  0.27977081334E+00  0.24816566394E+02  0.95083661641E+02  0.90254725141E+02 0.  0.
         11    1    3    3    0    0  0.15006111822E+02 -0.70800898878E+01  0.50794059176E+02  0.53435451834E+02  0.51100000000E-03 0.  1.
         22    1    1    0    0    0  0.16704701777E+02 -0.27977081334E+00 -0.24816566394E+02  0.29916338359E+02  0.00000000000E+00 0.  1.
</event>
<event>
 5    1  0.1096978E-009  0.9118800E+02  0.7818608E-02  0.1130116E+00
         25   -1    0    0    0    0  0.00000000000E+00  0.00000000000E+00  0.99999998245E-14  0.12500000000E+03  0.12500000000E+03 0.  0.
        -11    1    3    3    0    0  0.13110230239E+02  0.27198121474E+02  0.51068502099E+02  0.59326283008E+02  0.51100000000E-03 0.  1.
         23    2    1    0    0    0  0.19289080443E+02  0.10985990555E+02  0.19027985352E+02  0.95762612302E+02  0.91190202739E+02 0.  0.
         11    1    3    3    0    0  0.61788502043E+01 -0.16212130919E+02 -0.32040516747E+02  0.36436329294E+02  0.51100000000E-03 0. -1.
         22    1    1    0    0    0 -0.19289080443E+02 -0.10985990555E+02 -0.19027985352E+02  0.29237387698E+02  0.00000000000E+00 0.  1.
</event>
<event>
 5    1  0.1096978E-009  0.9118800E+02  0.7818608E-02  0.1130116E+00
         25   -1    0    0    0    0  0.00000000000E+00  0.00000000000E+00  0.99999998245E-14  0.12500000000E+03  0.12500000000E+03 0.  0.
        -11    1    3    3    0    0 -0.32219367773E+02 -0.42230125097E+02  0.30316910720E+02  0.61160331925E+02  0.51100000000E-03 0.  1.
         23    2    1    0    0    0 -0.71187540615E+01 -0.23155838225E+02  0.17115088714E+02  0.95338648632E+02  0.90607186017E+02 0.  0.
         11    1    3    3    0    0  0.25100613711E+02  0.19074286872E+02 -0.13201822005E+02  0.34178316706E+02  0.51100000000E-03 0. -1.
         22    1    1    0    0    0  0.71187540615E+01  0.23155838225E+02 -0.17115088714E+02  0.29661351368E+02  0.00000000000E+00 0.  1.
</event>
<event>
 5    1  0.1096978E-009  0.9118800E+02  0.7818608E-02  0.1130116E+00
         25   -1    0    0    0    0  0.00000000000E+00  0.00000000000E+00  0.99999998245E-14  0.12500000000E+03  0.12500000000E+03 0.  0.
        -11    1    3    3    0    0  0.11287712626E+02  0.13570593371E+02 -0.32783712026E+02  0.37233657290E+02  0.51100000000E-03 0.  1.
         23    2    1    0    0    0 -0.16160073182E+02  0.15530605182E+02  0.18831441197E+02  0.95725935708E+02  0.91139914017E+02 0.  0.
         11    1    3    3    0    0 -0.27447785808E+02  0.19600118117E+01  0.51615153223E+02  0.58492278418E+02  0.51100000000E-03 0. -1.
         22    1    1    0    0    0  0.16160073182E+02 -0.15530605182E+02 -0.18831441197E+02  0.29274064292E+02  0.00000000000E+00 0. -1.
</event>
<event>
 5    1  0.1096978E-009  0.9118800E+02  0.7818608E-02  0.1130116E+00
         25   -1    0    0    0    0  0.00000000000E+00  0.00000000000E+00  0.99999998245E-14  0.12500000000E+03  0.12500000000E+03 0.  0.
        -11    1    3    3    0    0 -0.16589303694E+02  0.36036546588E+02  0.99052203717E+01  0.40889498382E+02  0.51100000000E-03 0. -1.
         23    2    1    0    0    0 -0.24834541508E+01 -0.18633836273E+02  0.19221821430E+02  0.98113835940E+02  0.94358142124E+02 0.  0.
         11    1    3    3    0    0  0.14105849543E+02 -0.54670382861E+02  0.93166010579E+01  0.57224337559E+02  0.51100000000E-03 0.  1.
         22    1    1    0    0    0  0.24834541508E+01  0.18633836273E+02 -0.19221821430E+02  0.26886164060E+02  0.00000000000E+00 0.  1.
</event>
<event>
 5    1  0.1096978E-009  0.9118800E+02  0.7818608E-02  0.1130116E+00
         25   -1    0    0    0    0  0.00000000000E+00  0.00000000000E+00  0.99999998245E-14  0.12500000000E+03  0.12500000000E+03 0.  0.
        -11    1    3    3    0    0  0.29864376714E+02 -0.19469391630E+02 -0.48872571013E+00  0.35653570088E+02  0.51100000000E-03 0.  1.
         23    2    1    0    0    0 -0.87913268538E+01  0.26965771573E+02  0.45172762895E+01  0.96279866828E+02  0.91896499971E+02 0.  0.
         11    1    3    3    0    0 -0.38655703568E+02  0.46435163203E+02  0.50060019996E+01  0.60626296739E+02  0.51100000000E-03 0. -1.
         22    1    1    0    0    0  0.87913268538E+01 -0.26965771573E+02 -0.45172762895E+01  0.28720133172E+02  0.00000000000E+00 0. -1.
</event>
<event>
 5    1  0.1096978E-009  0.9118800E+02  0.7818608E-02  0.1130116E+00
         25   -1    0    0    0    0  0.00000000000E+00  0.00000000000E+00  0.99999998245E-14  0.12500000000E+03  0.12500000000E+03 0.  0.
        -11    1    3    3    0    0  0.16770915305E+02 -0.12224468493E+02 -0.50826538461E+02  0.54900257215E+02  0.51100000000E-03 0.  1.
         23    2    1    0    0    0  0.23651680496E+02 -0.10260207676E+02 -0.84610064577E+01  0.97865842890E+02  0.94029041909E+02 0.  0.
         11    1    3    3    0    0  0.68807651909E+01  0.19642608177E+01  0.42365532003E+02  0.42965585675E+02  0.51100000000E-03 0. -1.
         22    1    1    0    0    0 -0.23651680496E+02  0.10260207676E+02  0.84610064577E+01  0.27134157110E+02  0.00000000000E+00 0.  1.
</event>
<event>
 5    1  0.1096978E-009  0.9118800E+02  0.7818608E-02  0.1130116E+00
         25   -1    0    0    0    0  0.00000000000E+00  0.00000000000E+00  0.99999998245E-14  0.12500000000E+03  0.12500000000E+03 0.  0.
        -11    1    3    3    0    0  0.32125442106E+02  0.33112371794E+02  0.31422268507E+01  0.46242261906E+02  0.51100000000E-03 0. -1.
         23    2    1    0    0    0  0.25709713706E+02 -0.11003263164E+02 -0.13651759737E+02  0.93880364349E+02  0.88572518804E+02 0.  0.
         11    1    3    3    0    0 -0.64157283999E+01 -0.44115634958E+02 -0.16793986588E+02  0.47638102443E+02  0.51100000000E-03 0.  1.
         22    1    1    0    0    0 -0.25709713706E+02  0.11003263164E+02  0.13651759737E+02  0.31119635651E+02  0.00000000000E+00 0. -1.
</event>
<event>
 5    1  0.1096978E-009  0.9118800E+02  0.7818608E-02  0.1130116E+00
         25   -1    0    0    0    0  0.00000000000E+00  0.00000000000E+00  0.99999998245E-14  0.12500000000E+03  0.12500000000E+03 0.  0.
        -11    1    3    3    0    0 -0.12764356568E+02  0.49665517292E+02 -0.13362340740E+02  0.52991929166E+02  0.51100000000E-03 0. -1.
         23    2    1    0    0    0 -0.11077286111E+02  0.92838873412E+01 -0.25926819407E+02  0.95316725310E+02  0.90576935958E+02 0.  0.
         11    1    3    3    0    0  0.16870704577E+01 -0.40381629951E+02 -0.12564478667E+02  0.42324796144E+02  0.51100000000E-03 0.  1.
         22    1    1    0    0    0  0.11077286111E+02 -0.92838873412E+01  0.25926819407E+02  0.29683274690E+02  0.00000000000E+00 0. -1.
</event>
<event>
 5    1  0.1096978E-009  0.9118800E+02  0.7818608E-02  0.1130116E+00
         25   -1    0    0    0    0  0.00000000000E+00  0.00000000000E+00  0.99999998245E-14  0.12500000000E+03  0.12500000000E+03 0.  0.
        -11    1    3    3    0    0  0.34599794364E+02 -0.23003198239E+01 -0.17928214577E+02  0.39036625360E+02  0.51100000000E-03 0.  1.
         23    2    1    0    0    0  0.52099588331E+01 -0.65138360269E+01  0.29141657983E+02  0.94688121786E+02  0.89705242024E+02 0.  0.
         11    1    3    3    0    0 -0.29389835531E+02 -0.42135162030E+01  0.47069872560E+02  0.55651496426E+02  0.51100000000E-03 0. -1.
         22    1    1    0    0    0 -0.52099588331E+01  0.65138360269E+01 -0.29141657983E+02  0.30311878214E+02  0.00000000000E+00 0. -1.
</event>
<event>
 5    1  0.1096978E-009  0.9118800E+02  0.7818608E-02  0.1130116E+00
         25   -1    0    0    0    0  0.00000000000E+00  0.00000000000E+00  0.99999998245E-14  0.12500000000E+03  0.12500000000E+03 0.  0.
        -11    1    3    3    0    0 -0.28875040616E+02 -0.20657143116E+02 -0.37908318939E+02  0.51937714402E+02  0.51100000000E-03 0.  1.
         23    2    1    0    0    0  0.88584223400E+01 -0.22772604793E+02 -0.11850120554E+02  0.97843259906E+02  0.93999015827E+02 0.  0.
         11    1    3    3    0    0  0.37733462956E+02 -0.21154616769E+01  0.26058198384E+02  0.45905545504E+02  0.51100000000E-03 0. -1.
         22    1    1    0    0    0 -0.88584223400E+01  0.22772604793E+02  0.11850120554E+02  0.27156740094E+02  0.00000000000E+00 0.  1.
</event>
<event>
 5    1  0.1096978E-009  0.9118800E+02  0.7818608E-02  0.1130116E+00
         25   -1    0    0    0    0  0.00000000000E+00  0.00000000000E+00  0.99999998245E-14  0.12500000000E+03  0.12500000000E+03 0.  0.
        -11    1    3    3    0    0 -0.36110883612E+02  0.46808466523E+01  0.12902319242E+02  0.38631283731E+02  0.51100000000E-03 0. -1.
         23    2    1    0    0    0  0.19135443252E+02  0.88026606845E+01  0.21737994173E+02  0.94731329494E+02  0.89765429723E+02 0.  0.
         11    1    3    3    0    0  0.55246326864E+02  0.41218140322E+01  0.88356749309E+01  0.56100045763E+02  0.51100000000E-03 0.  1.
         22    1    1    0    0    0 -0.19135443252E+02 -0.88026606845E+01 -0.21737994173E+02  0.30268670506E+02  0.00000000000E+00 0.  1.
</event>
<event>
 5    1  0.1096978E-009  0.9118800E+02  0.7818608E-02  0.1130116E+00
         25   -1    0    0    0    0  0.00000000000E+00  0.00000000000E+00  0.99999998245E-14  0.12500000000E+03  0.12500000000E+03 0.  0.
        -11    1    3    3    0    0 -0.11568674449E+01 -0.93691103476E+01 -0.47544608409E+02  0.48472758948E+02  0.51100000000E-03 0. -1.
         23    2    1    0    0    0  0.14233664261E+02 -0.21305927441E+02 -0.51965670701E+00  0.99371699520E+02  0.96010024893E+02 0.  0.
         11    1    3    3    0    0  0.15390531706E+02 -0.11936817093E+02  0.47024951702E+02  0.50898940572E+02  0.51100000000E-03 0.  1.
         22    1    1    0    0    0 -0.14233664261E+02  0.21305927441E+02  0.51965670701E+00  0.25628300480E+02  0.00000000000E+00 0.  1.
</event>
<event>
 5    1  0.1096978E-009  0.9118800E+02  0.7818608E-02  0.1130116E+00
         25   -1    0    0    0    0  0.00000000000E+00  0.00000000000E+00  0.99999998245E-14  0.12500000000E+03  0.12500000000E+03 0.  0.
        -11    1    3    3    0    0 -0.85595350938E+01  0.35284158867E+02 -0.45105385298E+02  0.57902791738E+02  0.51100000000E-03 0.  1.
         23    2    1    0    0    0 -0.10877174524E+02  0.55765034123E+01 -0.32536777091E+02  0.90242954967E+02  0.83281082737E+02 0.  0.
         11    1    3    3    0    0 -0.23176394306E+01 -0.29707655455E+02  0.12568608207E+02  0.32340163229E+02  0.51100000000E-03 0. -1.
         22    1    1    0    0    0  0.10877174524E+02 -0.55765034123E+01  0.32536777091E+02  0.34757045033E+02  0.00000000000E+00 0.  1.
</event>
<event>
 5    1  0.1096978E-009  0.9118800E+02  0.7818608E-02  0.1130116E+00
         25   -1    0    0    0    0  0.00000000000E+00  0.00000000000E+00  0.99999998245E-14  0.12500000000E+03  0.12500000000E+03 0.  0.
        -11    1    3    3    0    0  0.20788563397E+02  0.45745932256E+02  0.34077138295E+02  0.60713310244E+02  0.51100000000E-03 0. -1.
         23    2    1    0    0    0  0.14515771049E+02  0.23590576632E+02  0.66698892884E+01  0.96509469326E+02  0.92208282337E+02 0.  0.
         11    1    3    3    0    0 -0.62727923485E+01 -0.22155355624E+02 -0.27407249007E+02  0.35796159083E+02  0.51100000000E-03 0.  1.
         22    1    1    0    0    0 -0.14515771049E+02 -0.23590576632E+02 -0.66698892884E+01  0.28490530674E+02  0.00000000000E+00 0. -1.
</event>
<event>
 5    1  0.1096978E-009  0.9118800E+02  0.7818608E-02  0.1130116E+00
         25   -1    0    0    0    0  0.00000000000E+00  0.00000000000E+00  0.99999998245E-14  0.12500000000E+03  0.12500000000E+03 0.  0.
        -11    1    3    3    0    0  0.25085682511E+02  0.10120423130E+02  0.21228412121E+02  0.34385460777E+02  0.51100000000E-03 0.  1.
         23    2    1    0    0    0 -0.63212913771E+01 -0.25077248300E+02 -0.16095940370E+02  0.94538443845E+02  0.89496429881E+02 0.  0.
         11    1    3    3    0    0 -0.31406973888E+02 -0.35197671430E+02 -0.37324352491E+02  0.60152983069E+02  0.51100000000E-03 0. -1.
         22    1    1    0    0    0  0.63212913771E+01  0.25077248300E+02  0.16095940370E+02  0.30461556155E+02  0.00000000000E+00 0. -1.
</event>
<event>
 5    1  0.1096978E-009  0.9118800E+02  0.7818608E-02  0.1130116E+00
         25   -1    0    0    0    0  0.00000000000E+00  0.00000000000E+00  0.99999998245E-14  0.12500000000E+03  0.12500000000E+03 0.  0.
        -11    1    3    3    0    0  0.60246420069E+01 -0.51904992809E+01  0.55764282373E+02  0.56328436716E+02  0.51100000000E-03 0. -1.
         23    2    1    0    0    0  0.10099520724E+02 -0.17951664151E+02  0.14242150543E+02  0.99958006934E+02  0.96770355654E+02 0.  0.
         11    1    3    3    0    0  0.40748787172E+01 -0.12761164870E+02 -0.41522131830E+02  0.43629570217E+02  0.51100000000E-03 0.  1.
         22    1    1    0    0    0 -0.10099520724E+02  0.17951664151E+02 -0.14242150543E+02  0.25041993066E+02  0.00000000000E+00 0. -1.
</event>
<event>
 5    1  0.1096978E-009  0.9118800E+02  0.7818608E-02  0.1130116E+00
         25   -1    0    0    0    0  0.00000000000E+00  0.00000000000E+00  0.99999998245E-14  0.12500000000E+03  0.12500000000E+03 0.  0.
        -11    1    3    3    0    0  0.17328175257E+02  0.36927881762E+02 -0.53885387878E+01  0.41145722252E+02  0.51100000000E-03 0.  1.
         23    2    1    0    0    0  0.56196122641E+01 -0.11427343150E+02 -0.26814164096E+02  0.95315599894E+02  0.90575382823E+02 0.  0.
         11    1    3    3    0    0 -0.11708562993E+02 -0.48355224912E+02 -0.21425625308E+02  0.54169877642E+02  0.51100000000E-03 0. -1.
         22    1    1    0    0    0 -0.56196122641E+01  0.11427343150E+02  0.26814164096E+02  0.29684400106E+02  0.00000000000E+00 0.  1.
</event>
<event>
 5    1  0.1096978E-009  0.9118800E+02  0.7818608E-02  0.1130116E+00
         25   -1    0    0    0    0  0.00000000000E+00  0.00000000000E+00  0.99999998245E-14  0.12500000000E+03  0.12500000000E+03 0.  0.
        -11    1    3    3    0    0  0.44554637343E+02 -0.97074011937E+01  0.83529947105E+01  0.46358622365E+02  0.51100000000E-03 0.  1.
         23    2    1    0    0    0  0.13307763382E+02  0.20031893324E+02  0.22810163930E+02  0.91853704658E+02  0.85664614425E+02 0.  0.
         11    1    3    3    0    0 -0.31246873961E+02  0.29739294518E+02  0.14457169219E+02  0.45495082293E+02  0.51100000000E-03 0. -1.
         22    1    1    0    0    0 -0.13307763382E+02 -0.20031893324E+02 -0.22810163930E+02  0.33146295342E+02  0.00000000000E+00 0.  1.
</event>
<event>
 5    1  0.1096978E-009  0.9118800E+02  0.7818608E-02  0.1130116E+00
         25   -1    0    0    0    0  0.00000000000E+00  0.00000000000E+00  0.99999998245E-14  0.12500000000E+03  0.12500000000E+03 0.  0.
        -11    1    3    3    0    0 -0.25718708586E+02  0.25655339705E+02 -0.16933027273E+02  0.40079618755E+02  0.51100000000E-03 0.  1.
         23    2    1    0    0    0  0.89057983274E+01 -0.15830351193E+02 -0.24349195430E+02  0.94622432935E+02  0.89613660977E+02 0.  0.
         11    1    3    3    0    0  0.34624506913E+02 -0.41485690897E+02 -0.74161681566E+01  0.54542814179E+02  0.51100000000E-03 0. -1.
         22    1    1    0    0    0 -0.89057983274E+01  0.15830351193E+02  0.24349195430E+02  0.30377567065E+02  0.00000000000E+00 0. -1.
</event>
<event>
 5    1  0.1096978E-009  0.9118800E+02  0.7818608E-02  0.1130116E+00
         25   -1    0    0    0    0  0.00000000000E+00  0.00000000000E+00  0.99999998245E-14  0.12500000000E+03  0.12500000000E+03 0.  0.
        -11    1    3    3    0    0 -0.60106608635E+01  0.31367303625E+01  0.37308688560E+02  0.37919722621E+02  0.51100000000E-03 0.  1.
         23    2    1    0    0    0  0.10677589933E+02 -0.20118422087E+02 -0.15126145853E+02  0.97658417704E+02  0.93752890228E+02 0.  0.
         11    1    3    3    0    0  0.16688250797E+02 -0.23255152450E+02 -0.52434834412E+02  0.59738695083E+02  0.51100000000E-03 0. -1.
         22    1    1    0    0    0 -0.10677589933E+02  0.20118422087E+02  0.15126145853E+02  0.27341582296E+02  0.00000000000E+00 0. -1.
</event>
<event>
 5    1  0.1096978E-009  0.9118800E+02  0.7818608E-02  0.1130116E+00
         25   -1    0    0    0    0  0.00000000000E+00  0.00000000000E+00  0.99999998245E-14  0.12500000000E+03  0.12500000000E+03 0.  0.
        -11    1    3    3    0    0 -0.18314197909E+02  0.36546431923E+02 -0.36082060742E+02  0.54524917597E+02  0.51100000000E-03 0.  1.
         23    2    1    0    0    0 -0.14823790277E+02 -0.34630240324E+01 -0.24205367830E+02  0.96405645218E+02  0.92067428032E+02 0.  0.
         11    1    3    3    0    0  0.34904076326E+01 -0.40009455955E+02  0.11876692912E+02  0.41880727621E+02  0.51100000000E-03 0. -1.
         22    1    1    0    0    0  0.14823790277E+02  0.34630240324E+01  0.24205367830E+02  0.28594354782E+02  0.00000000000E+00 0.  1.
</event>
<event>
 5    1  0.1096978E-009  0.9118800E+02  0.7818608E-02  0.1130116E+00
         25   -1    0    0    0    0  0.00000000000E+00  0.00000000000E+00  0.99999998245E-14  0.12500000000E+03  0.12500000000E+03 0.  0.
        -11    1    3    3    0    0 -0.98849074587E+01  0.38096012300E+01  0.41986574046E+02  0.43302388588E+02  0.51100000000E-03 0. -1.
         23    2    1    0    0    0 -0.26577615132E+02  0.88672030255E+01 -0.76850115479E+01  0.95947352649E+02  0.91443087012E+02 0.  0.
         11    1    3    3    0    0 -0.16692707673E+02  0.50576017955E+01 -0.49671585594E+02  0.52644964062E+02  0.51100000000E-03 0.  1.
         22    1    1    0    0    0  0.26577615132E+02 -0.88672030255E+01  0.76850115479E+01  0.29052647351E+02  0.00000000000E+00 0.  1.
</event>
<event>
 5    1  0.1096978E-009  0.9118800E+02  0.7818608E-02  0.1130116E+00
         25   -1    0    0    0    0  0.00000000000E+00  0.00000000000E+00  0.99999998245E-14  0.12500000000E+03  0.12500000000E+03 0.  0.
        -11    1    3    3    0    0  0.43985645885E+02  0.59865102630E+01  0.44543975047E+01  0.44614089775E+02  0.51100000000E-03 0. -1.
         23    2    1    0    0    0 -0.12633336906E+01  0.28656022958E+02  0.76143852874E+01  0.95322693399E+02  0.90585171799E+02 0.  0.
         11    1    3    3    0    0 -0.45248979576E+02  0.22669512695E+02  0.31599877827E+01  0.50708603624E+02  0.51100000000E-03 0.  1.
         22    1    1    0    0    0  0.12633336906E+01 -0.28656022958E+02 -0.76143852874E+01  0.29677306601E+02  0.00000000000E+00 0.  1.
</event>
<event>
 5    1  0.1096978E-009  0.9118800E+02  0.7818608E-02  0.1130116E+00
         25   -1    0    0    0    0  0.00000000000E+00  0.00000000000E+00  0.99999998245E-14  0.12500000000E+03  0.12500000000E+03 0.  0.
        -11    1    3    3    0    0 -0.33292730949E+02  0.20983919227E+02 -0.36536976219E+02  0.53699920220E+02  0.51100000000E-03 0. -1.
         23    2    1    0    0    0  0.34603681605E+01  0.24079741865E+02 -0.15337555999E+02  0.96241544893E+02  0.91844358691E+02 0.  0.
         11    1    3    3    0    0  0.36753099109E+02  0.30958226384E+01  0.21199420220E+02  0.42541624674E+02  0.51100000000E-03 0.  1.
         22    1    1    0    0    0 -0.34603681605E+01 -0.24079741865E+02  0.15337555999E+02  0.28758455107E+02  0.00000000000E+00 0. -1.
</event>
<event>
 5    1  0.1096978E-009  0.9118800E+02  0.7818608E-02  0.1130116E+00
         25   -1    0    0    0    0  0.00000000000E+00  0.00000000000E+00  0.99999998245E-14  0.12500000000E+03  0.12500000000E+03 0.  0.
        -11    1    3    3    0    0  0.38230327024E+02 -0.41615320856E+02  0.50174332262E+01  0.56732419927E+02  0.51100000000E-03 0. -1.
         23    2    1    0    0    0  0.20654443852E+02 -0.11519923272E+02  0.19376317012E+02  0.94426214759E+02  0.89339541580E+02 0.  0.
         11    1    3    3    0    0 -0.17575883171E+02  0.30095397584E+02  0.14358883786E+02  0.37693794832E+02  0.51100000000E-03 0.  1.
         22    1    1    0    0    0 -0.20654443852E+02  0.11519923272E+02 -0.19376317012E+02  0.30573785241E+02  0.00000000000E+00 0. -1.
</event>
<event>
 5    1  0.1096978E-009  0.9118800E+02  0.7818608E-02  0.1130116E+00
         25   -1    0    0    0    0  0.00000000000E+00  0.00000000000E+00  0.99999998245E-14  0.12500000000E+03  0.12500000000E+03 0.  0.
        -11    1    3    3    0    0  0.18059644704E+02 -0.45321998930E+02 -0.17947649889E+02  0.51984156150E+02  0.51100000000E-03 0.  1.
         23    2    1    0    0    0  0.15219078451E+02 -0.21828261861E+02  0.16435037440E+02  0.93723749898E+02  0.88351216599E+02 0.  0.
         11    1    3    3    0    0 -0.28405662527E+01  0.23493737069E+02  0.34382687329E+02  0.41739593749E+02  0.51100000000E-03 0. -1.
         22    1    1    0    0    0 -0.15219078451E+02  0.21828261861E+02 -0.16435037440E+02  0.31276250102E+02  0.00000000000E+00 0.  1.
</event>
<event>
 5    1  0.1096978E-009  0.9118800E+02  0.7818608E-02  0.1130116E+00
         25   -1    0    0    0    0  0.00000000000E+00  0.00000000000E+00  0.99999998245E-14  0.12500000000E+03  0.12500000000E+03 0.  0.
        -11    1    3    3    0    0  0.29871270249E+02 -0.38089010786E+01  0.27457485253E+01  0.30238049688E+02  0.51100000000E-03 0.  1.
         23    2    1    0    0    0 -0.32303271371E+02 -0.35714350988E+01 -0.47531252947E+00  0.92496424629E+02  0.86597379621E+02 0.  0.
         11    1    3    3    0    0 -0.62174541620E+02  0.23746597978E+00 -0.32210610547E+01  0.62258374941E+02  0.51100000000E-03 0. -1.
         22    1    1    0    0    0  0.32303271371E+02  0.35714350988E+01  0.47531252947E+00  0.32503575371E+02  0.00000000000E+00 0. -1.
</event>
<event>
 5    1  0.1096978E-009  0.9118800E+02  0.7818608E-02  0.1130116E+00
         25   -1    0    0    0    0  0.00000000000E+00  0.00000000000E+00  0.99999998245E-14  0.12500000000E+03  0.12500000000E+03 0.  0.
        -11    1    3    3    0    0  0.28581387537E+02 -0.22730061023E+02  0.20533215232E+01  0.36575504333E+02  0.51100000000E-03 0. -1.
         23    2    1    0    0    0 -0.24989842081E+02 -0.56253600574E+00  0.14819609378E+02  0.95940931259E+02  0.91434308739E+02 0.  0.
         11    1    3    3    0    0 -0.53571229618E+02  0.22167525017E+02  0.12766287855E+02  0.59365426926E+02  0.51100000000E-03 0.  1.
         22    1    1    0    0    0  0.24989842081E+02  0.56253600574E+00 -0.14819609378E+02  0.29059068741E+02  0.00000000000E+00 0.  1.
</event>
<event>
 5    1  0.1096978E-009  0.9118800E+02  0.7818608E-02  0.1130116E+00
         25   -1    0    0    0    0  0.00000000000E+00  0.00000000000E+00  0.99999998245E-14  0.12500000000E+03  0.12500000000E+03 0.  0.
        -11    1    3    3    0    0  0.21817395094E+02 -0.84908273765E+01 -0.31595721773E+02  0.39324070400E+02  0.51100000000E-03 0.  1.
         23    2    1    0    0    0 -0.13599960073E+02  0.25898575573E+02 -0.52503638008E+01  0.95280285151E+02  0.90526633029E+02 0.  0.
         11    1    3    3    0    0 -0.35417355167E+02  0.34389402949E+02  0.26345357972E+02  0.55956214750E+02  0.51100000000E-03 0. -1.
         22    1    1    0    0    0  0.13599960073E+02 -0.25898575573E+02  0.52503638008E+01  0.29719714849E+02  0.00000000000E+00 0. -1.
</event>
<event>
 5    1  0.1096978E-009  0.9118800E+02  0.7818608E-02  0.1130116E+00
         25   -1    0    0    0    0  0.00000000000E+00  0.00000000000E+00  0.99999998245E-14  0.12500000000E+03  0.12500000000E+03 0.  0.
        -11    1    3    3    0    0 -0.25737198014E+02 -0.12605437305E+02 -0.53414957437E+02  0.60617308498E+02  0.51100000000E-03 0.  1.
         23    2    1    0    0    0 -0.25715135369E+01 -0.64962610675E+01 -0.30288882787E+02  0.93915751413E+02  0.88622445539E+02 0.  0.
         11    1    3    3    0    0  0.23165684477E+02  0.61091762370E+01  0.23126074650E+02  0.33298442915E+02  0.51100000000E-03 0. -1.
         22    1    1    0    0    0  0.25715135369E+01  0.64962610675E+01  0.30288882787E+02  0.31084248587E+02  0.00000000000E+00 0.  1.
</event>
<event>
 5    1  0.1096978E-009  0.9118800E+02  0.7818608E-02  0.1130116E+00
         25   -1    0    0    0    0  0.00000000000E+00  0.00000000000E+00  0.99999998245E-14  0.12500000000E+03  0.12500000000E+03 0.  0.
        -11    1    3    3    0    0  0.36569700340E+02  0.39181305854E+02  0.30140356141E+02  0.61489501379E+02  0.51100000000E-03 0. -1.
         23    2    1    0    0    0  0.10535109829E+02  0.22342716971E+02  0.16013930596E+02  0.95561394158E+02  0.90913962291E+02 0.  0.
         11    1    3    3    0    0 -0.26034590510E+02 -0.16838588883E+02 -0.14126425544E+02  0.34071892778E+02  0.51100000000E-03 0.  1.
         22    1    1    0    0    0 -0.10535109829E+02 -0.22342716971E+02 -0.16013930596E+02  0.29438605842E+02  0.00000000000E+00 0. -1.
</event>
<event>
 5    1  0.1096978E-009  0.9118800E+02  0.7818608E-02  0.1130116E+00
         25   -1    0    0    0    0  0.00000000000E+00  0.00000000000E+00  0.99999998245E-14  0.12500000000E+03  0.12500000000E+03 0.  0.
        -11    1    3    3    0    0  0.12868352428E+02 -0.22384531323E+02 -0.39062026479E+02  0.46824178046E+02  0.51100000000E-03 0.  1.
         23    2    1    0    0    0 -0.10817428255E+01 -0.27834286531E+02  0.78424884902E+01  0.96061750226E+02  0.91599331638E+02 0.  0.
         11    1    3    3    0    0 -0.13950095253E+02 -0.54497552081E+01  0.46904514970E+02  0.49237572180E+02  0.51100000000E-03 0. -1.
         22    1    1    0    0    0  0.10817428255E+01  0.27834286531E+02 -0.78424884902E+01  0.28938249774E+02  0.00000000000E+00 0. -1.
</event>
<event>
 5    1  0.1096978E-009  0.9118800E+02  0.7818608E-02  0.1130116E+00
         25   -1    0    0    0    0  0.00000000000E+00  0.00000000000E+00  0.99999998245E-14  0.12500000000E+03  0.12500000000E+03 0.  0.
        -11    1    3    3    0    0 -0.18802660559E+00 -0.10901646382E+02 -0.45094350541E+02  0.46393767888E+02  0.51100000000E-03 0.  1.
         23    2    1    0    0    0 -0.10538110512E+02 -0.26429078549E+02  0.14203073144E+01  0.96512015884E+02  0.92211734454E+02 0.  0.
         11    1    3    3    0    0 -0.10350083906E+02 -0.15527432167E+02  0.46514657855E+02  0.50118247996E+02  0.51100000000E-03 0. -1.
         22    1    1    0    0    0  0.10538110512E+02  0.26429078549E+02 -0.14203073144E+01  0.28487984116E+02  0.00000000000E+00 0. -1.
</event>
<event>
 5    1  0.1096978E-009  0.9118800E+02  0.7818608E-02  0.1130116E+00
         25   -1    0    0    0    0  0.00000000000E+00  0.00000000000E+00  0.99999998245E-14  0.12500000000E+03  0.12500000000E+03 0.  0.
        -11    1    3    3    0    0 -0.35950111799E+01 -0.14941153748E+02 -0.40762699645E+02  0.43563285727E+02  0.51100000000E-03 0.  1.
         23    2    1    0    0    0 -0.18745183472E+02  0.21259952533E+02 -0.59152490856E+01  0.96045593481E+02  0.91577280863E+02 0.  0.
         11    1    3    3    0    0 -0.15150172293E+02  0.36201106281E+02  0.34847450559E+02  0.52482307754E+02  0.51100000000E-03 0. -1.
         22    1    1    0    0    0  0.18745183472E+02 -0.21259952533E+02  0.59152490856E+01  0.28954406519E+02  0.00000000000E+00 0. -1.
</event>
<event>
 5    1  0.1096978E-009  0.9118800E+02  0.7818608E-02  0.1130116E+00
         25   -1    0    0    0    0  0.00000000000E+00  0.00000000000E+00  0.99999998245E-14  0.12500000000E+03  0.12500000000E+03 0.  0.
        -11    1    3    3    0    0  0.19404306644E+02  0.97115565215E+01  0.24963530710E+02  0.33075962755E+02  0.51100000000E-03 0.  1.
         23    2    1    0    0    0 -0.25857526770E+02 -0.13077548577E+02 -0.96666225321E+01  0.94453681750E+02  0.89377963936E+02 0.  0.
         11    1    3    3    0    0 -0.45261833414E+02 -0.22789105099E+02 -0.34630153242E+02  0.61377718995E+02  0.51100000000E-03 0. -1.
         22    1    1    0    0    0  0.25857526770E+02  0.13077548577E+02  0.96666225321E+01  0.30546318250E+02  0.00000000000E+00 0. -1.
</event>
<event>
 5    1  0.1096978E-009  0.9118800E+02  0.7818608E-02  0.1130116E+00
         25   -1    0    0    0    0  0.00000000000E+00  0.00000000000E+00  0.99999998245E-14  0.12500000000E+03  0.12500000000E+03 0.  0.
        -11    1    3    3    0    0  0.14433026560E+02 -0.18745858706E+02 -0.25954093711E+02  0.35118861811E+02  0.51100000000E-03 0.  1.
         23    2    1    0    0    0  0.49728650516E+01  0.70083720547E+01  0.28033899197E+02  0.95678571490E+02  0.91074929989E+02 0.  0.
         11    1    3    3    0    0 -0.94601615085E+01  0.25754230761E+02  0.53987992908E+02  0.60559709679E+02  0.51100000000E-03 0. -1.
         22    1    1    0    0    0 -0.49728650516E+01 -0.70083720547E+01 -0.28033899197E+02  0.29321428510E+02  0.00000000000E+00 0. -1.
</event>
<event>
 5    1  0.1096978E-009  0.9118800E+02  0.7818608E-02  0.1130116E+00
         25   -1    0    0    0    0  0.00000000000E+00  0.00000000000E+00  0.99999998245E-14  0.12500000000E+03  0.12500000000E+03 0.  0.
        -11    1    3    3    0    0 -0.12294989872E+02 -0.33522311885E+02 -0.43635871056E+02  0.56382633968E+02  0.51100000000E-03 0. -1.
         23    2    1    0    0    0  0.12079381772E+02 -0.17616872455E+02 -0.84922681969E+01  0.10201338915E+03  0.99389875180E+02 0.  0.
         11    1    3    3    0    0  0.24374371644E+02  0.15905439431E+02  0.35143602860E+02  0.45630755185E+02  0.51100000000E-03 0.  1.
         22    1    1    0    0    0 -0.12079381772E+02  0.17616872455E+02  0.84922681969E+01  0.22986610847E+02  0.00000000000E+00 0. -1.
</event>
<event>
 5    1  0.1096978E-009  0.9118800E+02  0.7818608E-02  0.1130116E+00
         25   -1    0    0    0    0  0.00000000000E+00  0.00000000000E+00  0.99999998245E-14  0.12500000000E+03  0.12500000000E+03 0.  0.
        -11    1    3    3    0    0  0.14373346088E+02 -0.12947251291E+02 -0.58073672043E+02  0.61210912251E+02  0.51100000000E-03 0.  1.
         23    2    1    0    0    0 -0.40602753439E+00 -0.11500302484E+02 -0.26962546254E+02  0.95684462889E+02  0.91083015553E+02 0.  0.
         11    1    3    3    0    0 -0.14779373623E+02  0.14469488076E+01  0.31111125788E+02  0.34473550638E+02  0.51100000000E-03 0. -1.
         22    1    1    0    0    0  0.40602753439E+00  0.11500302484E+02  0.26962546254E+02  0.29315537111E+02  0.00000000000E+00 0.  1.
</event>
<event>
 5    1  0.1096978E-009  0.9118800E+02  0.7818608E-02  0.1130116E+00
         25   -1    0    0    0    0  0.00000000000E+00  0.00000000000E+00  0.99999998245E-14  0.12500000000E+03  0.12500000000E+03 0.  0.
        -11    1    3    3    0    0 -0.20368845023E+01 -0.42009169030E+02 -0.31623168767E+01  0.42177238285E+02  0.51100000000E-03 0.  1.
         23    2    1    0    0    0 -0.24380762249E+02  0.55209671251E+01 -0.14769707874E+02  0.95964729784E+02  0.91466837958E+02 0.  0.
         11    1    3    3    0    0 -0.22343877747E+02  0.47530136155E+02 -0.11607390997E+02  0.53787491499E+02  0.51100000000E-03 0. -1.
         22    1    1    0    0    0  0.24380762249E+02 -0.55209671251E+01  0.14769707874E+02  0.29035270216E+02  0.00000000000E+00 0. -1.
</event>
<event>
 5    1  0.1096978E-009  0.9118800E+02  0.7818608E-02  0.1130116E+00
         25   -1    0    0    0    0  0.00000000000E+00  0.00000000000E+00  0.99999998245E-14  0.12500000000E+03  0.12500000000E+03 0.  0.
        -11    1    3    3    0    0  0.28450945393E+02 -0.44644505284E+01 -0.31974502624E+02  0.43032039582E+02  0.51100000000E-03 0.  1.
         23    2    1    0    0    0  0.87444437768E+01  0.27467560924E+02  0.50369703356E+01  0.95737340000E+02  0.91155553863E+02 0.  0.
         11    1    3    3    0    0 -0.19706501616E+02  0.31932011453E+02  0.37011472959E+02  0.52705300419E+02  0.51100000000E-03 0. -1.
         22    1    1    0    0    0 -0.87444437768E+01 -0.27467560924E+02 -0.50369703356E+01  0.29262660000E+02  0.00000000000E+00 0. -1.
</event>
<event>
 5    1  0.1096978E-009  0.9118800E+02  0.7818608E-02  0.1130116E+00
         25   -1    0    0    0    0  0.00000000000E+00  0.00000000000E+00  0.99999998245E-14  0.12500000000E+03  0.12500000000E+03 0.  0.
        -11    1    3    3    0    0 -0.42640993288E+02 -0.14184345925E+02  0.39934106830E+02  0.60118074374E+02  0.51100000000E-03 0. -1.
         23    2    1    0    0    0 -0.19206094278E+02  0.53134883938E+01  0.21223293993E+02  0.95887538334E+02  0.91361286021E+02 0.  0.
         11    1    3    3    0    0  0.23434899010E+02  0.19497834319E+02 -0.18710812836E+02  0.35769463960E+02  0.51100000000E-03 0.  1.
         22    1    1    0    0    0  0.19206094278E+02 -0.53134883938E+01 -0.21223293993E+02  0.29112461666E+02  0.00000000000E+00 0. -1.
</event>
<event>
 5    1  0.1096978E-009  0.9118800E+02  0.7818608E-02  0.1130116E+00
         25   -1    0    0    0    0  0.00000000000E+00  0.00000000000E+00  0.99999998245E-14  0.12500000000E+03  0.12500000000E+03 0.  0.
        -11    1    3    3    0    0 -0.60362719935E+01  0.31770915730E+02 -0.51438009984E+01  0.32745783772E+02  0.51100000000E-03 0.  1.
         23    2    1    0    0    0  0.46676488956E+00 -0.29097617003E+02  0.67993050702E+01  0.95114891097E+02  0.90297966612E+02 0.  0.
         11    1    3    3    0    0  0.65030368830E+01 -0.60868532732E+02  0.11943106069E+02  0.62369107325E+02  0.51100000000E-03 0. -1.
         22    1    1    0    0    0 -0.46676488956E+00  0.29097617003E+02 -0.67993050702E+01  0.29885108903E+02  0.00000000000E+00 0. -1.
</event>
<event>
 4    1  0.1096978E-009  0.9118800E+02  0.7818608E-02  0.1130116E+00
         25   -1    0    0    0    0  0.00000000000E+00  0.00000000000E+00  0.99999998245E-14  0.12500000000E+03  0.12500000000E+03 0.  0.
        -11    1    1    0    0    0 -0.34228925595E+02  0.39971435415E+02  0.11187267892E+01  0.52636361447E+02  0.51100000000E-03 0. -1.
         11    1    1    0    0    0  0.12113645911E+02  0.44141065025E+01 -0.16038322293E+02  0.20577962379E+02  0.51100000000E-03 0.  1.
         22    1    1    0    0    0  0.22115279684E+02 -0.44385541917E+02  0.14919595503E+02  0.51785676174E+02  0.00000000000E+00 0. -1.
</event>
<event>
 5    1  0.1096978E-009  0.9118800E+02  0.7818608E-02  0.1130116E+00
         25   -1    0    0    0    0  0.00000000000E+00  0.00000000000E+00  0.99999998245E-14  0.12500000000E+03  0.12500000000E+03 0.  0.
        -11    1    3    3    0    0  0.38968139839E+02  0.35294213314E+02 -0.27821766067E+02  0.59483174791E+02  0.51100000000E-03 0.  1.
         23    2    1    0    0    0  0.86375662692E+01  0.14618277867E+02 -0.22859342066E+02  0.96524552356E+02  0.92228727027E+02 0.  0.
         11    1    3    3    0    0 -0.30330573569E+02 -0.20675935447E+02  0.49624240005E+01  0.37041377565E+02  0.51100000000E-03 0. -1.
         22    1    1    0    0    0 -0.86375662692E+01 -0.14618277867E+02  0.22859342066E+02  0.28475447644E+02  0.00000000000E+00 0.  1.
</event>
<event>
 5    1  0.1096978E-009  0.9118800E+02  0.7818608E-02  0.1130116E+00
         25   -1    0    0    0    0  0.00000000000E+00  0.00000000000E+00  0.99999998245E-14  0.12500000000E+03  0.12500000000E+03 0.  0.
        -11    1    3    3    0    0  0.37810972442E+01 -0.34819827409E+02 -0.21640736519E+02  0.41170845929E+02  0.51100000000E-03 0. -1.
         23    2    1    0    0    0  0.21249081490E+02  0.16021178420E+02 -0.12088311858E+02  0.95771094688E+02  0.91201829324E+02 0.  0.
         11    1    3    3    0    0  0.17467984246E+02  0.50841005830E+02  0.95524246610E+01  0.54600248759E+02  0.51100000000E-03 0.  1.
         22    1    1    0    0    0 -0.21249081490E+02 -0.16021178420E+02  0.12088311858E+02  0.29228905312E+02  0.00000000000E+00 0.  1.
</event>
<event>
 5    1  0.1096978E-009  0.9118800E+02  0.7818608E-02  0.1130116E+00
         25   -1    0    0    0    0  0.00000000000E+00  0.00000000000E+00  0.99999998245E-14  0.12500000000E+03  0.12500000000E+03 0.  0.
        -11    1    3    3    0    0 -0.52371058092E+01 -0.78674978735E+01  0.52863361902E+02  0.53701581280E+02  0.51100000000E-03 0.  1.
         23    2    1    0    0    0  0.19960631010E+02  0.33853065449E+01  0.22582738685E+02  0.94670687821E+02  0.89680945330E+02 0.  0.
         11    1    3    3    0    0  0.25197736820E+02  0.11252804418E+02 -0.30280623217E+02  0.40969106541E+02  0.51100000000E-03 0. -1.
         22    1    1    0    0    0 -0.19960631010E+02 -0.33853065449E+01 -0.22582738685E+02  0.30329312179E+02  0.00000000000E+00 0. -1.
</event>
<event>
 5    1  0.1096978E-009  0.9118800E+02  0.7818608E-02  0.1130116E+00
         25   -1    0    0    0    0  0.00000000000E+00  0.00000000000E+00  0.99999998245E-14  0.12500000000E+03  0.12500000000E+03 0.  0.
        -11    1    3    3    0    0  0.87233134749E+01  0.29982505163E+02  0.51795831394E+02  0.60480203074E+02  0.51100000000E-03 0. -1.
         23    2    1    0    0    0 -0.68950916622E+01  0.12892544904E+02  0.26226182864E+02  0.94973800261E+02  0.90102442061E+02 0.  0.
         11    1    3    3    0    0 -0.15618405137E+02 -0.17089960260E+02 -0.25569648530E+02  0.34493597187E+02  0.51100000000E-03 0.  1.
         22    1    1    0    0    0  0.68950916622E+01 -0.12892544904E+02 -0.26226182864E+02  0.30026199739E+02  0.00000000000E+00 0. -1.
</event>
<event>
 5    1  0.1096978E-009  0.9118800E+02  0.7818608E-02  0.1130116E+00
         25   -1    0    0    0    0  0.00000000000E+00  0.00000000000E+00  0.99999998245E-14  0.12500000000E+03  0.12500000000E+03 0.  0.
        -11    1    3    3    0    0  0.14183283255E+02  0.28903493346E+02 -0.64904478540E+01  0.32843619854E+02  0.51100000000E-03 0.  1.
         23    2    1    0    0    0 -0.33898868131E+02  0.10257045096E+02 -0.17375021021E+02  0.85550898741E+02  0.75912612161E+02 0.  0.
         11    1    3    3    0    0 -0.48082151387E+02 -0.18646448251E+02 -0.10884573167E+02  0.52707278886E+02  0.51100000000E-03 0. -1.
         22    1    1    0    0    0  0.33898868131E+02 -0.10257045096E+02  0.17375021021E+02  0.39449101259E+02  0.00000000000E+00 0. -1.
</event>
<event>
 5    1  0.1096978E-009  0.9118800E+02  0.7818608E-02  0.1130116E+00
         25   -1    0    0    0    0  0.00000000000E+00  0.00000000000E+00  0.99999998245E-14  0.12500000000E+03  0.12500000000E+03 0.  0.
        -11    1    3    3    0    0  0.40137320315E+02  0.17898188428E+02  0.24183923633E+02  0.50161855962E+02  0.51100000000E-03 0.  1.
         23    2    1    0    0    0  0.23452513694E+02  0.67043593961E+01 -0.16510180399E+02  0.95545715247E+02  0.90892402388E+02 0.  0.
         11    1    3    3    0    0 -0.16684806620E+02 -0.11193829032E+02 -0.40694104032E+02  0.45383859285E+02  0.51100000000E-03 0. -1.
         22    1    1    0    0    0 -0.23452513694E+02 -0.67043593961E+01  0.16510180399E+02  0.29454284753E+02  0.00000000000E+00 0. -1.
</event>
<event>
 5    1  0.1096978E-009  0.9118800E+02  0.7818608E-02  0.1130116E+00
         25   -1    0    0    0    0  0.00000000000E+00  0.00000000000E+00  0.99999998245E-14  0.12500000000E+03  0.12500000000E+03 0.  0.
        -11    1    3    3    0    0 -0.34095741598E+02 -0.60249075116E+01  0.44559136124E+01  0.34909515494E+02  0.51100000000E-03 0. -1.
         23    2    1    0    0    0  0.19430503936E+02  0.64397033276E+01 -0.21172897631E+02  0.95549943018E+02  0.90898216454E+02 0.  0.
         11    1    3    3    0    0  0.53526245534E+02  0.12464610839E+02 -0.25628811243E+02  0.60640427524E+02  0.51100000000E-03 0.  1.
         22    1    1    0    0    0 -0.19430503936E+02 -0.64397033276E+01  0.21172897631E+02  0.29450056982E+02  0.00000000000E+00 0.  1.
</event>
<event>
 5    1  0.1096978E-009  0.9118800E+02  0.7818608E-02  0.1130116E+00
         25   -1    0    0    0    0  0.00000000000E+00  0.00000000000E+00  0.99999998245E-14  0.12500000000E+03  0.12500000000E+03 0.  0.
        -11    1    3    3    0    0 -0.34136268544E+02 -0.31435816438E+02 -0.11539539682E+02  0.47818995823E+02  0.51100000000E-03 0. -1.
         23    2    1    0    0    0 -0.19499546801E+02 -0.22121532178E+01  0.22591155867E+02  0.95075323382E+02  0.90243176171E+02 0.  0.
         11    1    3    3    0    0  0.14636721743E+02  0.29223663221E+02  0.34130695549E+02  0.47256327558E+02  0.51100000000E-03 0.  1.
         22    1    1    0    0    0  0.19499546801E+02  0.22121532178E+01 -0.22591155867E+02  0.29924676618E+02  0.00000000000E+00 0. -1.
</event>
<event>
 5    1  0.1096978E-009  0.9118800E+02  0.7818608E-02  0.1130116E+00
         25   -1    0    0    0    0  0.00000000000E+00  0.00000000000E+00  0.99999998245E-14  0.12500000000E+03  0.12500000000E+03 0.  0.
        -11    1    3    3    0    0  0.28769818913E+02 -0.13076246473E+02  0.14607912349E+02  0.34814965253E+02  0.51100000000E-03 0. -1.
         23    2    1    0    0    0 -0.26314924141E+02 -0.84330378359E+01 -0.10381693225E+02  0.95481007573E+02  0.90803369393E+02 0.  0.
         11    1    3    3    0    0 -0.55084743054E+02  0.46432086367E+01 -0.24989605574E+02  0.60666042320E+02  0.51100000000E-03 0.  1.
         22    1    1    0    0    0  0.26314924141E+02  0.84330378359E+01  0.10381693225E+02  0.29518992427E+02  0.00000000000E+00 0.  1.
</event>
<event>
 5    1  0.1096978E-009  0.9118800E+02  0.7818608E-02  0.1130116E+00
         25   -1    0    0    0    0  0.00000000000E+00  0.00000000000E+00  0.99999998245E-14  0.12500000000E+03  0.12500000000E+03 0.  0.
        -11    1    3    3    0    0  0.30100803668E+02 -0.10382027037E+02 -0.10211847496E+02  0.33438401522E+02  0.51100000000E-03 0.  1.
         23    2    1    0    0    0 -0.28476936695E+02 -0.21135156522E+00  0.76407802687E+01  0.95515052720E+02  0.90850223885E+02 0.  0.
         11    1    3    3    0    0 -0.58577740362E+02  0.10170675472E+02  0.17852627765E+02  0.62076651197E+02  0.51100000000E-03 0. -1.
         22    1    1    0    0    0  0.28476936695E+02  0.21135156522E+00 -0.76407802687E+01  0.29484947280E+02  0.00000000000E+00 0. -1.
</event>
<event>
 5    1  0.1096978E-009  0.9118800E+02  0.7818608E-02  0.1130116E+00
         25   -1    0    0    0    0  0.00000000000E+00  0.00000000000E+00  0.99999998245E-14  0.12500000000E+03  0.12500000000E+03 0.  0.
        -11    1    3    3    0    0 -0.49942263110E+02 -0.27881770836E+02  0.74352083991E+01  0.57679330038E+02  0.51100000000E-03 0. -1.
         23    2    1    0    0    0 -0.22418798361E+02 -0.36556966998E+01  0.18199628477E+02  0.95893418013E+02  0.91369330211E+02 0.  0.
         11    1    3    3    0    0  0.27523464749E+02  0.24226074136E+02  0.10764420078E+02  0.38214087974E+02  0.51100000000E-03 0.  1.
         22    1    1    0    0    0  0.22418798361E+02  0.36556966998E+01 -0.18199628477E+02  0.29106581987E+02  0.00000000000E+00 0. -1.
</event>
<event>
 5    1  0.1096978E-009  0.9118800E+02  0.7818608E-02  0.1130116E+00
         25   -1    0    0    0    0  0.00000000000E+00  0.00000000000E+00  0.99999998245E-14  0.12500000000E+03  0.12500000000E+03 0.  0.
        -11    1    3    3    0    0  0.52324170962E+02 -0.66434489565E+01 -0.13114288021E+02  0.54350150243E+02  0.51100000000E-03 0. -1.
         23    2    1    0    0    0  0.21879852969E+02 -0.15396334761E+02  0.12860540094E+02  0.95315516148E+02  0.90575267248E+02 0.  0.
         11    1    3    3    0    0 -0.30444317992E+02 -0.87528858045E+01  0.25974828115E+02  0.40965365906E+02  0.51100000000E-03 0.  1.
         22    1    1    0    0    0 -0.21879852969E+02  0.15396334761E+02 -0.12860540094E+02  0.29684483852E+02  0.00000000000E+00 0. -1.
</event>
<event>
 5    1  0.1096978E-009  0.9118800E+02  0.7818608E-02  0.1130116E+00
         25   -1    0    0    0    0  0.00000000000E+00  0.00000000000E+00  0.99999998245E-14  0.12500000000E+03  0.12500000000E+03 0.  0.
        -11    1    3    3    0    0 -0.17267894530E+02  0.30026968416E+02  0.34134961779E+02  0.48631210448E+02  0.51100000000E-03 0. -1.
         23    2    1    0    0    0  0.48382430558E+01 -0.94155184125E+01  0.28989736289E+02  0.94137961944E+02  0.88935316304E+02 0.  0.
         11    1    3    3    0    0  0.22106137586E+02 -0.39442486828E+02 -0.51452254900E+01  0.45506751496E+02  0.51100000000E-03 0.  1.
         22    1    1    0    0    0 -0.48382430558E+01  0.94155184125E+01 -0.28989736289E+02  0.30862038056E+02  0.00000000000E+00 0. -1.
</event>
<event>
 5    1  0.1096978E-009  0.9118800E+02  0.7818608E-02  0.1130116E+00
         25   -1    0    0    0    0  0.00000000000E+00  0.00000000000E+00  0.99999998245E-14  0.12500000000E+03  0.12500000000E+03 0.  0.
        -11    1    3    3    0    0 -0.13967506843E+02  0.34926553433E+02 -0.14456997887E+02  0.40298389177E+02  0.51100000000E-03 0.  1.
         23    2    1    0    0    0  0.53512380672E+01 -0.20040892629E+02 -0.16342850631E+02  0.98592389488E+02  0.94989985641E+02 0.  0.
         11    1    3    3    0    0  0.19318744910E+02 -0.54967446061E+02 -0.18858527442E+01  0.58294000311E+02  0.51100000000E-03 0. -1.
         22    1    1    0    0    0 -0.53512380672E+01  0.20040892629E+02  0.16342850631E+02  0.26407610512E+02  0.00000000000E+00 0. -1.
</event>
<event>
 5    1  0.1096978E-009  0.9118800E+02  0.7818608E-02  0.1130116E+00
         25   -1    0    0    0    0  0.00000000000E+00  0.00000000000E+00  0.99999998245E-14  0.12500000000E+03  0.12500000000E+03 0.  0.
        -11    1    3    3    0    0 -0.46535215556E+02 -0.28470685209E+02  0.23890464026E+02  0.59555524301E+02  0.51100000000E-03 0. -1.
         23    2    1    0    0    0 -0.19030156035E+02 -0.21274366579E+02  0.37088415168E+00  0.96453843217E+02  0.92132843244E+02 0.  0.
         11    1    3    3    0    0  0.27505059522E+02  0.71963186302E+01 -0.23519579874E+02  0.36898318916E+02  0.51100000000E-03 0.  1.
         22    1    1    0    0    0  0.19030156035E+02  0.21274366579E+02 -0.37088415168E+00  0.28546156783E+02  0.00000000000E+00 0. -1.
</event>
<event>
 5    1  0.1096978E-009  0.9118800E+02  0.7818608E-02  0.1130116E+00
         25   -1    0    0    0    0  0.00000000000E+00  0.00000000000E+00  0.99999998245E-14  0.12500000000E+03  0.12500000000E+03 0.  0.
        -11    1    3    3    0    0  0.18975090406E+02 -0.11489507104E+02  0.50831966441E+02  0.55461262534E+02  0.51100000000E-03 0.  1.
         23    2    1    0    0    0  0.24215278223E+02 -0.12760053846E+02  0.11253380843E+02  0.95405452293E+02  0.90699300291E+02 0.  0.
         11    1    3    3    0    0  0.52401878161E+01 -0.12705467424E+01 -0.39578585597E+02  0.39944189759E+02  0.51100000000E-03 0. -1.
         22    1    1    0    0    0 -0.24215278223E+02  0.12760053846E+02 -0.11253380843E+02  0.29594547707E+02  0.00000000000E+00 0.  1.
</event>
<event>
 5    1  0.1096978E-009  0.9118800E+02  0.7818608E-02  0.1130116E+00
         25   -1    0    0    0    0  0.00000000000E+00  0.00000000000E+00  0.99999998245E-14  0.12500000000E+03  0.12500000000E+03 0.  0.
        -11    1    3    3    0    0  0.99524094148E+01  0.29645562977E+02  0.13830842069E+02  0.34193596623E+02  0.51100000000E-03 0. -1.
         23    2    1    0    0    0  0.94616095441E+01 -0.27600372421E+02 -0.67917943050E+01  0.95042845882E+02  0.90198178865E+02 0.  0.
         11    1    3    3    0    0 -0.49079987072E+00 -0.57245935398E+02 -0.20622636374E+02  0.60849249259E+02  0.51100000000E-03 0.  1.
         22    1    1    0    0    0 -0.94616095441E+01  0.27600372421E+02  0.67917943050E+01  0.29957154118E+02  0.00000000000E+00 0.  1.
</event>
<event>
 5    1  0.1096978E-009  0.9118800E+02  0.7818608E-02  0.1130116E+00
         25   -1    0    0    0    0  0.00000000000E+00  0.00000000000E+00  0.99999998245E-14  0.12500000000E+03  0.12500000000E+03 0.  0.
        -11    1    3    3    0    0 -0.23591546577E+02 -0.40001360360E+02 -0.28053491738E+02  0.54255583118E+02  0.51100000000E-03 0. -1.
         23    2    1    0    0    0 -0.12835246619E+02 -0.14817043694E+02 -0.37052397218E+02  0.83081406521E+02  0.71731106435E+02 0.  0.
         11    1    3    3    0    0  0.10756299959E+02  0.25184316666E+02 -0.89989054810E+01  0.28825823403E+02  0.51100000000E-03 0.  1.
         22    1    1    0    0    0  0.12835246619E+02  0.14817043694E+02  0.37052397218E+02  0.41918593479E+02  0.00000000000E+00 0. -1.
</event>
<event>
 5    1  0.1096978E-009  0.9118800E+02  0.7818608E-02  0.1130116E+00
         25   -1    0    0    0    0  0.00000000000E+00  0.00000000000E+00  0.99999998245E-14  0.12500000000E+03  0.12500000000E+03 0.  0.
        -11    1    3    3    0    0  0.45140934080E+02  0.14417270879E+02  0.22958031189E+02  0.52655795746E+02  0.51100000000E-03 0. -1.
         23    2    1    0    0    0  0.12594151707E+02 -0.18407798324E+02  0.90725532274E+01  0.10092156736E+03  0.98007100967E+02 0.  0.
         11    1    3    3    0    0 -0.32546782373E+02 -0.32825069203E+02 -0.13885477962E+02  0.48265771614E+02  0.51100000000E-03 0.  1.
         22    1    1    0    0    0 -0.12594151707E+02  0.18407798324E+02 -0.90725532274E+01  0.24078432640E+02  0.00000000000E+00 0. -1.
</event>
<event>
 5    1  0.1096978E-009  0.9118800E+02  0.7818608E-02  0.1130116E+00
         25   -1    0    0    0    0  0.00000000000E+00  0.00000000000E+00  0.99999998245E-14  0.12500000000E+03  0.12500000000E+03 0.  0.
        -11    1    3    3    0    0  0.19707413904E+02 -0.50258705735E+02  0.11317438936E+02  0.55157992070E+02  0.51100000000E-03 0.  1.
         23    2    1    0    0    0  0.74147075934E+01 -0.15747900679E+02  0.25232317530E+02  0.94346385002E+02  0.89227777348E+02 0.  0.
         11    1    3    3    0    0 -0.12292706310E+02  0.34510805055E+02  0.13914878595E+02  0.39188392932E+02  0.51100000000E-03 0. -1.
         22    1    1    0    0    0 -0.74147075934E+01  0.15747900679E+02 -0.25232317530E+02  0.30653614998E+02  0.00000000000E+00 0.  1.
</event>
<event>
 5    1  0.1096978E-009  0.9118800E+02  0.7818608E-02  0.1130116E+00
         25   -1    0    0    0    0  0.00000000000E+00  0.00000000000E+00  0.99999998245E-14  0.12500000000E+03  0.12500000000E+03 0.  0.
        -11    1    3    3    0    0 -0.12926121042E+02 -0.35117096260E+02  0.15736683985E+02  0.40594806047E+02  0.51100000000E-03 0. -1.
         23    2    1    0    0    0 -0.23211658189E+02  0.10370190871E+02 -0.14071247975E+02  0.95942781376E+02  0.91436838003E+02 0.  0.
         11    1    3    3    0    0 -0.10285537147E+02  0.45487287131E+02 -0.29807931961E+02  0.55347975329E+02  0.51100000000E-03 0.  1.
         22    1    1    0    0    0  0.23211658189E+02 -0.10370190871E+02  0.14071247975E+02  0.29057218624E+02  0.00000000000E+00 0.  1.
</event>
<event>
 5    1  0.1096978E-009  0.9118800E+02  0.7818608E-02  0.1130116E+00
         25   -1    0    0    0    0  0.00000000000E+00  0.00000000000E+00  0.99999998245E-14  0.12500000000E+03  0.12500000000E+03 0.  0.
        -11    1    3    3    0    0  0.12982297316E+02  0.11030763909E+02 -0.29077673798E+02  0.33700577291E+02  0.51100000000E-03 0. -1.
         23    2    1    0    0    0 -0.10051225961E+02 -0.30746610210E+01  0.27044988595E+02  0.95984278541E+02  0.91493549692E+02 0.  0.
         11    1    3    3    0    0 -0.23033523277E+02 -0.14105424930E+02  0.56122662393E+02  0.62283701249E+02  0.51100000000E-03 0.  1.
         22    1    1    0    0    0  0.10051225961E+02  0.30746610210E+01 -0.27044988595E+02  0.29015721459E+02  0.00000000000E+00 0.  1.
</event>
<event>
 5    1  0.1096978E-009  0.9118800E+02  0.7818608E-02  0.1130116E+00
         25   -1    0    0    0    0  0.00000000000E+00  0.00000000000E+00  0.99999998245E-14  0.12500000000E+03  0.12500000000E+03 0.  0.
        -11    1    3    3    0    0 -0.51148673206E+02  0.35146526764E+02  0.40804498908E+01  0.62194173247E+02  0.51100000000E-03 0.  1.
         23    2    1    0    0    0 -0.22279185850E+02  0.17024061346E+02  0.59693614527E+01  0.96332700459E+02  0.91968337566E+02 0.  0.
         11    1    3    3    0    0  0.28869487356E+02 -0.18122465418E+02  0.18889115619E+01  0.34138527212E+02  0.51100000000E-03 0. -1.
         22    1    1    0    0    0  0.22279185850E+02 -0.17024061346E+02 -0.59693614527E+01  0.28667299541E+02  0.00000000000E+00 0.  1.
</event>
<event>
 5    1  0.1096978E-009  0.9118800E+02  0.7818608E-02  0.1130116E+00
         25   -1    0    0    0    0  0.00000000000E+00  0.00000000000E+00  0.99999998245E-14  0.12500000000E+03  0.12500000000E+03 0.  0.
        -11    1    3    3    0    0  0.72823476641E+01 -0.11721197205E+02 -0.33834080992E+02  0.36539897211E+02  0.51100000000E-03 0.  1.
         23    2    1    0    0    0 -0.75021958100E+01 -0.16265890958E+02  0.23231571682E+02  0.95664559430E+02  0.91055696458E+02 0.  0.
         11    1    3    3    0    0 -0.14784543474E+02 -0.45446937534E+01  0.57065652674E+02  0.59124662218E+02  0.51100000000E-03 0. -1.
         22    1    1    0    0    0  0.75021958100E+01  0.16265890958E+02 -0.23231571682E+02  0.29335440570E+02  0.00000000000E+00 0. -1.
</event>
<event>
 5    1  0.1096978E-009  0.9118800E+02  0.7818608E-02  0.1130116E+00
         25   -1    0    0    0    0  0.00000000000E+00  0.00000000000E+00  0.99999998245E-14  0.12500000000E+03  0.12500000000E+03 0.  0.
        -11    1    3    3    0    0  0.95102128764E+01 -0.13016365799E+02  0.39026358494E+02  0.42224715335E+02  0.51100000000E-03 0.  1.
         23    2    1    0    0    0 -0.28041195096E+02 -0.11954750376E+02  0.28402081491E+01  0.94384783827E+02  0.89281554404E+02 0.  0.
         11    1    3    3    0    0 -0.37551407972E+02  0.10616154225E+01 -0.36186150345E+02  0.52160068492E+02  0.51100000000E-03 0. -1.
         22    1    1    0    0    0  0.28041195096E+02  0.11954750376E+02 -0.28402081491E+01  0.30615216173E+02  0.00000000000E+00 0. -1.
</event>
<event>
 5    1  0.1096978E-009  0.9118800E+02  0.7818608E-02  0.1130116E+00
         25   -1    0    0    0    0  0.00000000000E+00  0.00000000000E+00  0.99999998245E-14  0.12500000000E+03  0.12500000000E+03 0.  0.
        -11    1    3    3    0    0  0.22399007258E+02  0.72803930828E+01  0.13369003529E+00  0.23552866553E+02  0.51100000000E-03 0.  1.
         23    2    1    0    0    0 -0.14070727749E+02  0.15655987345E+02  0.40968905482E+02  0.78939751026E+02  0.64108796249E+02 0.  0.
         11    1    3    3    0    0 -0.36469735007E+02  0.83755942623E+01  0.40835215447E+02  0.55386884473E+02  0.51100000000E-03 0. -1.
         22    1    1    0    0    0  0.14070727749E+02 -0.15655987345E+02 -0.40968905482E+02  0.46060248974E+02  0.00000000000E+00 0. -1.
</event>
<event>
 5    1  0.1096978E-009  0.9118800E+02  0.7818608E-02  0.1130116E+00
         25   -1    0    0    0    0  0.00000000000E+00  0.00000000000E+00  0.99999998245E-14  0.12500000000E+03  0.12500000000E+03 0.  0.
        -11    1    3    3    0    0  0.33903223336E+02 -0.30053185400E+00  0.51351389646E+02  0.61534413874E+02  0.51100000000E-03 0.  1.
         23    2    1    0    0    0  0.14924401805E+02  0.69622108197E+01  0.17880197701E+02  0.10069132627E+03  0.97713006131E+02 0.  0.
         11    1    3    3    0    0 -0.18978821531E+02  0.72627426737E+01 -0.33471191945E+02  0.39156912395E+02  0.51100000000E-03 0. -1.
         22    1    1    0    0    0 -0.14924401805E+02 -0.69622108197E+01 -0.17880197701E+02  0.24308673731E+02  0.00000000000E+00 0.  1.
</event>
<event>
 5    1  0.1096978E-009  0.9118800E+02  0.7818608E-02  0.1130116E+00
         25   -1    0    0    0    0  0.00000000000E+00  0.00000000000E+00  0.99999998245E-14  0.12500000000E+03  0.12500000000E+03 0.  0.
        -11    1    3    3    0    0 -0.30900351615E+02  0.39889372595E+02 -0.34454617454E+01  0.50575339671E+02  0.51100000000E-03 0. -1.
         23    2    1    0    0    0  0.86919760425E+01  0.30525362961E+02 -0.98654050670E+01  0.91763356840E+02  0.85532679194E+02 0.  0.
         11    1    3    3    0    0  0.39592327658E+02 -0.93640096344E+01 -0.64199433216E+01  0.41188017169E+02  0.51100000000E-03 0.  1.
         22    1    1    0    0    0 -0.86919760425E+01 -0.30525362961E+02  0.98654050670E+01  0.33236643160E+02  0.00000000000E+00 0. -1.
</event>
<event>
 5    1  0.1096978E-009  0.9118800E+02  0.7818608E-02  0.1130116E+00
         25   -1    0    0    0    0  0.00000000000E+00  0.00000000000E+00  0.99999998245E-14  0.12500000000E+03  0.12500000000E+03 0.  0.
        -11    1    3    3    0    0 -0.56057867144E+02 -0.11728018934E+02  0.80893379349E+01  0.57840023213E+02  0.51100000000E-03 0.  1.
         23    2    1    0    0    0 -0.18235457019E+02 -0.20870738414E+02  0.45724545793E+01  0.96910376373E+02  0.92750170313E+02 0.  0.
         11    1    3    3    0    0  0.37822410125E+02 -0.91427194807E+01 -0.35168833556E+01  0.39070353159E+02  0.51100000000E-03 0. -1.
         22    1    1    0    0    0  0.18235457019E+02  0.20870738414E+02 -0.45724545793E+01  0.28089623627E+02  0.00000000000E+00 0.  1.
</event>
<event>
 5    1  0.1096978E-009  0.9118800E+02  0.7818608E-02  0.1130116E+00
         25   -1    0    0    0    0  0.00000000000E+00  0.00000000000E+00  0.99999998245E-14  0.12500000000E+03  0.12500000000E+03 0.  0.
        -11    1    3    3    0    0  0.55089399530E+02 -0.62554540508E+01 -0.27065069647E+02  0.61696763620E+02  0.51100000000E-03 0. -1.
         23    2    1    0    0    0  0.28391772255E+02  0.27787130313E+01 -0.93820652800E+01  0.94969396829E+02  0.90096332929E+02 0.  0.
         11    1    3    3    0    0 -0.26697627275E+02  0.90341670821E+01  0.17683004367E+02  0.33272633209E+02  0.51100000000E-03 0.  1.
         22    1    1    0    0    0 -0.28391772255E+02 -0.27787130313E+01  0.93820652800E+01  0.30030603171E+02  0.00000000000E+00 0. -1.
</event>
<event>
 5    1  0.1096978E-009  0.9118800E+02  0.7818608E-02  0.1130116E+00
         25   -1    0    0    0    0  0.00000000000E+00  0.00000000000E+00  0.99999998245E-14  0.12500000000E+03  0.12500000000E+03 0.  0.
        -11    1    3    3    0    0  0.38709821366E+02 -0.34535937097E+02  0.15258328126E+02  0.54074002985E+02  0.51100000000E-03 0.  1.
         23    2    1    0    0    0  0.26662064541E+02  0.48107600504E+01  0.12049244734E+02  0.95348804467E+02  0.90621195737E+02 0.  0.
         11    1    3    3    0    0 -0.12047756825E+02  0.39346697148E+02 -0.32090833916E+01  0.41274801482E+02  0.51100000000E-03 0. -1.
         22    1    1    0    0    0 -0.26662064541E+02 -0.48107600504E+01 -0.12049244734E+02  0.29651195533E+02  0.00000000000E+00 0.  1.
</event>
<event>
 5    1  0.1096978E-009  0.9118800E+02  0.7818608E-02  0.1130116E+00
         25   -1    0    0    0    0  0.00000000000E+00  0.00000000000E+00  0.99999998245E-14  0.12500000000E+03  0.12500000000E+03 0.  0.
        -11    1    3    3    0    0  0.15202172790E+02  0.28296416259E+02 -0.88267098061E+01  0.33312220534E+02  0.51100000000E-03 0. -1.
         23    2    1    0    0    0 -0.31613232389E+02  0.10372532536E+02  0.14625201355E+02  0.88656054040E+02  0.80864167033E+02 0.  0.
         11    1    3    3    0    0 -0.46815405179E+02 -0.17923883723E+02  0.23451911161E+02  0.55343833506E+02  0.51100000000E-03 0.  1.
         22    1    1    0    0    0  0.31613232389E+02 -0.10372532536E+02 -0.14625201355E+02  0.36343945960E+02  0.00000000000E+00 0.  1.
</event>
<event>
 5    1  0.1096978E-009  0.9118800E+02  0.7818608E-02  0.1130116E+00
         25   -1    0    0    0    0  0.00000000000E+00  0.00000000000E+00  0.99999998245E-14  0.12500000000E+03  0.12500000000E+03 0.  0.
        -11    1    3    3    0    0 -0.31914647042E+02  0.19078049696E+02 -0.26742549502E+02  0.45800443558E+02  0.51100000000E-03 0.  1.
         23    2    1    0    0    0 -0.12640007184E+02 -0.24119911465E+02 -0.10504507882E+02  0.95812937857E+02  0.91259160989E+02 0.  0.
         11    1    3    3    0    0  0.19274639858E+02 -0.43197961161E+02  0.16238041621E+02  0.50012494299E+02  0.51100000000E-03 0. -1.
         22    1    1    0    0    0  0.12640007184E+02  0.24119911465E+02  0.10504507882E+02  0.29187062143E+02  0.00000000000E+00 0. -1.
</event>
<event>
 5    1  0.1096978E-009  0.9118800E+02  0.7818608E-02  0.1130116E+00
         25   -1    0    0    0    0  0.00000000000E+00  0.00000000000E+00  0.99999998245E-14  0.12500000000E+03  0.12500000000E+03 0.  0.
        -11    1    3    3    0    0 -0.34833497188E+02 -0.81213033075E+01  0.49495743314E+02  0.61066821599E+02  0.51100000000E-03 0.  1.
         23    2    1    0    0    0 -0.28964002845E+02 -0.84954762114E+01  0.26400383159E+02  0.84899291680E+02  0.74831964560E+02 0.  0.
         11    1    3    3    0    0  0.58694943432E+01 -0.37417290397E+00 -0.23095360155E+02  0.23832470081E+02  0.51100000000E-03 0. -1.
         22    1    1    0    0    0  0.28964002845E+02  0.84954762114E+01 -0.26400383159E+02  0.40100708320E+02  0.00000000000E+00 0.  1.
</event>
<event>
 5    1  0.1096978E-009  0.9118800E+02  0.7818608E-02  0.1130116E+00
         25   -1    0    0    0    0  0.00000000000E+00  0.00000000000E+00  0.99999998245E-14  0.12500000000E+03  0.12500000000E+03 0.  0.
        -11    1    3    3    0    0 -0.25764337370E+02 -0.29541625899E+02  0.16953637549E+02  0.42707546959E+02  0.51100000000E-03 0. -1.
         23    2    1    0    0    0  0.20892004441E+02 -0.41410040002E+01  0.19818236736E+02  0.95907281478E+02  0.91388294488E+02 0.  0.
         11    1    3    3    0    0  0.46656341812E+02  0.25400621898E+02  0.28645991866E+01  0.53199734518E+02  0.51100000000E-03 0.  1.
         22    1    1    0    0    0 -0.20892004441E+02  0.41410040002E+01 -0.19818236736E+02  0.29092718522E+02  0.00000000000E+00 0. -1.
</event>
<event>
 5    1  0.1096978E-009  0.9118800E+02  0.7818608E-02  0.1130116E+00
         25   -1    0    0    0    0  0.00000000000E+00  0.00000000000E+00  0.99999998245E-14  0.12500000000E+03  0.12500000000E+03 0.  0.
        -11    1    3    3    0    0  0.18766721795E+02 -0.13548510176E+02 -0.55499261624E+02  0.60132520453E+02  0.51100000000E-03 0.  1.
         23    2    1    0    0    0 -0.30773972441E+00 -0.14468814228E+02 -0.24764289613E+02  0.96317055085E+02  0.91947070488E+02 0.  0.
         11    1    3    3    0    0 -0.19074461519E+02 -0.92030405257E+00  0.30734972011E+02  0.36184534633E+02  0.51100000000E-03 0. -1.
         22    1    1    0    0    0  0.30773972441E+00  0.14468814228E+02  0.24764289613E+02  0.28682944915E+02  0.00000000000E+00 0.  1.
</event>
<event>
 5    1  0.1096978E-009  0.9118800E+02  0.7818608E-02  0.1130116E+00
         25   -1    0    0    0    0  0.00000000000E+00  0.00000000000E+00  0.99999998245E-14  0.12500000000E+03  0.12500000000E+03 0.  0.
        -11    1    3    3    0    0  0.46330868911E+02 -0.30992299773E+02 -0.27087598785E+02  0.61974269398E+02  0.51100000000E-03 0. -1.
         23    2    1    0    0    0  0.24330908962E+02 -0.15751847556E+02 -0.77364873799E+01  0.95000548850E+02  0.90139543001E+02 0.  0.
         11    1    3    3    0    0 -0.21999959949E+02  0.15240452217E+02  0.19351111405E+02  0.33026279451E+02  0.51100000000E-03 0.  1.
         22    1    1    0    0    0 -0.24330908962E+02  0.15751847556E+02  0.77364873799E+01  0.29999451150E+02  0.00000000000E+00 0. -1.
</event>
<event>
 5    1  0.1096978E-009  0.9118800E+02  0.7818608E-02  0.1130116E+00
         25   -1    0    0    0    0  0.00000000000E+00  0.00000000000E+00  0.99999998245E-14  0.12500000000E+03  0.12500000000E+03 0.  0.
        -11    1    3    3    0    0 -0.31341549684E+02 -0.32005273374E+02  0.43415410544E+01  0.45005324567E+02  0.51100000000E-03 0.  1.
         23    2    1    0    0    0 -0.15408513375E+02  0.18785730348E+02  0.10381583005E+02  0.98578357076E+02  0.94971518199E+02 0.  0.
         11    1    3    3    0    0  0.15933036309E+02  0.50791003723E+02  0.60400419505E+01  0.53573032509E+02  0.51100000000E-03 0. -1.
         22    1    1    0    0    0  0.15408513375E+02 -0.18785730348E+02 -0.10381583005E+02  0.26421642924E+02  0.00000000000E+00 0. -1.
</event>
<event>
 5    1  0.1096978E-009  0.9118800E+02  0.7818608E-02  0.1130116E+00
         25   -1    0    0    0    0  0.00000000000E+00  0.00000000000E+00  0.99999998245E-14  0.12500000000E+03  0.12500000000E+03 0.  0.
        -11    1    3    3    0    0  0.40122674335E+02  0.39251317199E+02  0.13981280839E+02  0.57844369750E+02  0.51100000000E-03 0.  1.
         23    2    1    0    0    0  0.15649704817E+02  0.82769402153E+00 -0.68009568500E+01  0.10791634254E+03  0.10655555187E+03 0.  0.
         11    1    3    3    0    0 -0.24472969518E+02 -0.38423623177E+02 -0.20782237689E+02  0.50071972787E+02  0.51100000000E-03 0. -1.
         22    1    1    0    0    0 -0.15649704817E+02 -0.82769402153E+00  0.68009568500E+01  0.17083657463E+02  0.00000000000E+00 0.  1.
</event>
<event>
 5    1  0.1096978E-009  0.9118800E+02  0.7818608E-02  0.1130116E+00
         25   -1    0    0    0    0  0.00000000000E+00  0.00000000000E+00  0.99999998245E-14  0.12500000000E+03  0.12500000000E+03 0.  0.
        -11    1    3    3    0    0  0.31755634500E+02  0.14026283157E+02  0.78847445991E+01  0.35599524425E+02  0.51100000000E-03 0. -1.
         23    2    1    0    0    0 -0.92404064125E+01 -0.53624645409E+01 -0.29025036093E+02  0.94071148473E+02  0.88841359277E+02 0.  0.
         11    1    3    3    0    0 -0.40996040912E+02 -0.19388747698E+02 -0.36909780692E+02  0.58471624047E+02  0.51100000000E-03 0.  1.
         22    1    1    0    0    0  0.92404064125E+01  0.53624645409E+01  0.29025036093E+02  0.30928851527E+02  0.00000000000E+00 0.  1.
</event>
<event>
 5    1  0.1096978E-009  0.9118800E+02  0.7818608E-02  0.1130116E+00
         25   -1    0    0    0    0  0.00000000000E+00  0.00000000000E+00  0.99999998245E-14  0.12500000000E+03  0.12500000000E+03 0.  0.
        -11    1    3    3    0    0 -0.47157703216E+02  0.18643488310E+02  0.25300331818E+02  0.56670410439E+02  0.51100000000E-03 0.  1.
         23    2    1    0    0    0 -0.11550595691E+02  0.24528139708E+02  0.77452594350E+01  0.96803636013E+02  0.92606203913E+02 0.  0.
         11    1    3    3    0    0  0.35607107525E+02  0.58846513989E+01 -0.17555072383E+02  0.40133225574E+02  0.51100000000E-03 0. -1.
         22    1    1    0    0    0  0.11550595691E+02 -0.24528139708E+02 -0.77452594350E+01  0.28196363987E+02  0.00000000000E+00 0.  1.
</event>
<event>
 5    1  0.1096978E-009  0.9118800E+02  0.7818608E-02  0.1130116E+00
         25   -1    0    0    0    0  0.00000000000E+00  0.00000000000E+00  0.99999998245E-14  0.12500000000E+03  0.12500000000E+03 0.  0.
        -11    1    3    3    0    0  0.27124707570E+02  0.48190604751E+02  0.19195907210E+02  0.58536885815E+02  0.51100000000E-03 0. -1.
         23    2    1    0    0    0  0.11461357855E+01  0.22014555634E+02  0.19723919500E+02  0.95419815967E+02  0.90719093865E+02 0.  0.
         11    1    3    3    0    0 -0.25978571784E+02 -0.26176049117E+02  0.52801228994E+00  0.36882930152E+02  0.51100000000E-03 0.  1.
         22    1    1    0    0    0 -0.11461357855E+01 -0.22014555634E+02 -0.19723919500E+02  0.29580184033E+02  0.00000000000E+00 0. -1.
</event>
<event>
 5    1  0.1096978E-009  0.9118800E+02  0.7818608E-02  0.1130116E+00
         25   -1    0    0    0    0  0.00000000000E+00  0.00000000000E+00  0.99999998245E-14  0.12500000000E+03  0.12500000000E+03 0.  0.
        -11    1    3    3    0    0  0.51327921575E+01  0.30869480697E+02 -0.35117222519E+02  0.47037109940E+02  0.51100000000E-03 0.  1.
         23    2    1    0    0    0  0.27278380111E+02  0.75016198782E+01  0.25571946805E+01  0.96593599895E+02  0.92322261529E+02 0.  0.
         11    1    3    3    0    0  0.22145587953E+02 -0.23367860819E+02  0.37674417200E+02  0.49556489955E+02  0.51100000000E-03 0. -1.
         22    1    1    0    0    0 -0.27278380111E+02 -0.75016198782E+01 -0.25571946805E+01  0.28406400105E+02  0.00000000000E+00 0.  1.
</event>
<event>
 5    1  0.1096978E-009  0.9118800E+02  0.7818608E-02  0.1130116E+00
         25   -1    0    0    0    0  0.00000000000E+00  0.00000000000E+00  0.99999998245E-14  0.12500000000E+03  0.12500000000E+03 0.  0.
        -11    1    3    3    0    0 -0.77016981092E+01  0.60356675211E+02 -0.10398068648E+02  0.61728147779E+02  0.51100000000E-03 0. -1.
         23    2    1    0    0    0 -0.42822912938E+01  0.27647135295E+02 -0.11778404853E+02  0.94644886269E+02  0.89644975137E+02 0.  0.
         11    1    3    3    0    0  0.34194068153E+01 -0.32709539917E+02 -0.13803362045E+01  0.32916738490E+02  0.51100000000E-03 0.  1.
         22    1    1    0    0    0  0.42822912938E+01 -0.27647135295E+02  0.11778404853E+02  0.30355113731E+02  0.00000000000E+00 0. -1.
</event>
<event>
 5    1  0.1096978E-009  0.9118800E+02  0.7818608E-02  0.1130116E+00
         25   -1    0    0    0    0  0.00000000000E+00  0.00000000000E+00  0.99999998245E-14  0.12500000000E+03  0.12500000000E+03 0.  0.
        -11    1    3    3    0    0  0.24619208334E+02 -0.55892682200E+02  0.64627396357E+01  0.61415505749E+02  0.51100000000E-03 0. -1.
         23    2    1    0    0    0  0.15965070569E+02 -0.20533447987E+02  0.78090892738E+01  0.97843272660E+02  0.93999032788E+02 0.  0.
         11    1    3    3    0    0 -0.86541377651E+01  0.35359234213E+02  0.13463496381E+01  0.36427766912E+02  0.51100000000E-03 0.  1.
         22    1    1    0    0    0 -0.15965070569E+02  0.20533447987E+02 -0.78090892738E+01  0.27156727340E+02  0.00000000000E+00 0. -1.
</event>
<event>
 5    1  0.1096978E-009  0.9118800E+02  0.7818608E-02  0.1130116E+00
         25   -1    0    0    0    0  0.00000000000E+00  0.00000000000E+00  0.99999998245E-14  0.12500000000E+03  0.12500000000E+03 0.  0.
        -11    1    3    3    0    0 -0.13766905949E+02 -0.30731576721E+02  0.29394785964E+01  0.33802337816E+02  0.51100000000E-03 0.  1.
         23    2    1    0    0    0  0.26152516354E+02  0.15122037716E+02 -0.14431840886E+01  0.94755778789E+02  0.89799469359E+02 0.  0.
         11    1    3    3    0    0  0.39919422303E+02  0.45853614437E+02 -0.43826626850E+01  0.60953440973E+02  0.51100000000E-03 0. -1.
         22    1    1    0    0    0 -0.26152516354E+02 -0.15122037716E+02  0.14431840886E+01  0.30244221211E+02  0.00000000000E+00 0. -1.
</event>
<event>
 5    1  0.1096978E-009  0.9118800E+02  0.7818608E-02  0.1130116E+00
         25   -1    0    0    0    0  0.00000000000E+00  0.00000000000E+00  0.99999998245E-14  0.12500000000E+03  0.12500000000E+03 0.  0.
        -11    1    3    3    0    0 -0.34509648148E+02 -0.20580103561E+01 -0.19548647600E+01  0.34626185444E+02  0.51100000000E-03 0.  1.
         23    2    1    0    0    0  0.26583871354E+02  0.93772732251E+01 -0.11968855332E+01  0.96785322893E+02  0.92581481535E+02 0.  0.
         11    1    3    3    0    0  0.61093519501E+02  0.11435283581E+02  0.75797922684E+00  0.62159137449E+02  0.51100000000E-03 0. -1.
         22    1    1    0    0    0 -0.26583871354E+02 -0.93772732251E+01  0.11968855332E+01  0.28214677107E+02  0.00000000000E+00 0. -1.
</event>
<event>
 5    1  0.1096978E-009  0.9118800E+02  0.7818608E-02  0.1130116E+00
         25   -1    0    0    0    0  0.00000000000E+00  0.00000000000E+00  0.99999998245E-14  0.12500000000E+03  0.12500000000E+03 0.  0.
        -11    1    3    3    0    0 -0.61274934755E+02 -0.26310923717E+01  0.23412389253E+01  0.61376067618E+02  0.51100000000E-03 0.  1.
         23    2    1    0    0    0 -0.25836276337E+02 -0.55886311214E+01 -0.59793648801E+01  0.97898362095E+02  0.94072262244E+02 0.  0.
         11    1    3    3    0    0  0.35438658418E+02 -0.29575387497E+01 -0.83206038054E+01  0.36522294477E+02  0.51100000000E-03 0. -1.
         22    1    1    0    0    0  0.25836276337E+02  0.55886311214E+01  0.59793648801E+01  0.27101637905E+02  0.00000000000E+00 0.  1.
</event>
<event>
 5    1  0.1096978E-009  0.9118800E+02  0.7818608E-02  0.1130116E+00
         25   -1    0    0    0    0  0.00000000000E+00  0.00000000000E+00  0.99999998245E-14  0.12500000000E+03  0.12500000000E+03 0.  0.
        -11    1    3    3    0    0  0.34428000329E+02 -0.10737418494E+02  0.30071517680E+02  0.46956102249E+02  0.51100000000E-03 0.  1.
         23    2    1    0    0    0  0.19910227492E+02  0.83048455328E+01 -0.15500393668E+02  0.98435929868E+02  0.94783872399E+02 0.  0.
         11    1    3    3    0    0 -0.14517772837E+02  0.19042264027E+02 -0.45571911349E+02  0.51479827618E+02  0.51100000000E-03 0. -1.
         22    1    1    0    0    0 -0.19910227492E+02 -0.83048455328E+01  0.15500393668E+02  0.26564070132E+02  0.00000000000E+00 0. -1.
</event>
<event>
 5    1  0.1096978E-009  0.9118800E+02  0.7818608E-02  0.1130116E+00
         25   -1    0    0    0    0  0.00000000000E+00  0.00000000000E+00  0.99999998245E-14  0.12500000000E+03  0.12500000000E+03 0.  0.
        -11    1    3    3    0    0 -0.45661545230E+01  0.66343151699E+01 -0.47115534463E+02  0.47798927738E+02  0.51100000000E-03 0. -1.
         23    2    1    0    0    0  0.25054936447E+02  0.11243106570E+02 -0.94065191319E+01  0.95971739841E+02  0.91476417508E+02 0.  0.
         11    1    3    3    0    0  0.29621090970E+02  0.46087914005E+01  0.37709015331E+02  0.48172812103E+02  0.51100000000E-03 0.  1.
         22    1    1    0    0    0 -0.25054936447E+02 -0.11243106570E+02  0.94065191319E+01  0.29028260159E+02  0.00000000000E+00 0. -1.
</event>
<event>
 5    1  0.1096978E-009  0.9118800E+02  0.7818608E-02  0.1130116E+00
         25   -1    0    0    0    0  0.00000000000E+00  0.00000000000E+00  0.99999998245E-14  0.12500000000E+03  0.12500000000E+03 0.  0.
        -11    1    3    3    0    0  0.55332932712E+01  0.25297220660E+02  0.14022944362E+02  0.29448424005E+02  0.51100000000E-03 0.  1.
         23    2    1    0    0    0 -0.26983369782E+02  0.97602878928E+01  0.41345519917E+02  0.74672895158E+02  0.55165422047E+02 0.  0.
         11    1    3    3    0    0 -0.32516663053E+02 -0.15536932767E+02  0.27322575555E+02  0.45224471154E+02  0.51100000000E-03 0. -1.
         22    1    1    0    0    0  0.26983369782E+02 -0.97602878928E+01 -0.41345519917E+02  0.50327104842E+02  0.00000000000E+00 0. -1.
</event>
<event>
 5    1  0.1096978E-009  0.9118800E+02  0.7818608E-02  0.1130116E+00
         25   -1    0    0    0    0  0.00000000000E+00  0.00000000000E+00  0.99999998245E-14  0.12500000000E+03  0.12500000000E+03 0.  0.
        -11    1    3    3    0    0 -0.17120943331E+01 -0.19432235798E+02  0.31701406210E+02  0.37222603497E+02  0.51100000000E-03 0. -1.
         23    2    1    0    0    0 -0.19073489850E+02 -0.66459275563E+01 -0.22025957915E+02  0.95115067505E+02  0.90298210814E+02 0.  0.
         11    1    3    3    0    0 -0.17361395517E+02  0.12786308241E+02 -0.53727364126E+02  0.57892464008E+02  0.51100000000E-03 0.  1.
         22    1    1    0    0    0  0.19073489850E+02  0.66459275563E+01  0.22025957915E+02  0.29884932495E+02  0.00000000000E+00 0.  1.
</event>
<event>
 5    1  0.1096978E-009  0.9118800E+02  0.7818608E-02  0.1130116E+00
         25   -1    0    0    0    0  0.00000000000E+00  0.00000000000E+00  0.99999998245E-14  0.12500000000E+03  0.12500000000E+03 0.  0.
        -11    1    3    3    0    0 -0.36184835096E+02 -0.43547787627E+02  0.74191168307E+01  0.57103374620E+02  0.51100000000E-03 0. -1.
         23    2    1    0    0    0 -0.94683352269E+00 -0.29563306587E+02  0.31969822169E+01  0.95249264120E+02  0.90483788769E+02 0.  0.
         11    1    3    3    0    0  0.35238001573E+02  0.13984481040E+02 -0.42221346138E+01  0.38145889501E+02  0.51100000000E-03 0.  1.
         22    1    1    0    0    0  0.94683352269E+00  0.29563306587E+02 -0.31969822169E+01  0.29750735880E+02  0.00000000000E+00 0. -1.
</event>
<event>
 5    1  0.1096978E-009  0.9118800E+02  0.7818608E-02  0.1130116E+00
         25   -1    0    0    0    0  0.00000000000E+00  0.00000000000E+00  0.99999998245E-14  0.12500000000E+03  0.12500000000E+03 0.  0.
        -11    1    3    3    0    0 -0.28026407881E+02  0.38732019855E+02 -0.31315709108E+02  0.57151750087E+02  0.51100000000E-03 0. -1.
         23    2    1    0    0    0 -0.75457781218E+01  0.66535051550E+01 -0.27874064693E+02  0.95366043450E+02  0.90644971523E+02 0.  0.
         11    1    3    3    0    0  0.20480629759E+02 -0.32078514700E+02  0.34416444154E+01  0.38214293363E+02  0.51100000000E-03 0.  1.
         22    1    1    0    0    0  0.75457781218E+01 -0.66535051550E+01  0.27874064693E+02  0.29633956550E+02  0.00000000000E+00 0. -1.
</event>
<event>
 5    1  0.1096978E-009  0.9118800E+02  0.7818608E-02  0.1130116E+00
         25   -1    0    0    0    0  0.00000000000E+00  0.00000000000E+00  0.99999998245E-14  0.12500000000E+03  0.12500000000E+03 0.  0.
        -11    1    3    3    0    0  0.17981591795E+02 -0.11933184102E+02  0.29695720709E+02  0.36709322454E+02  0.51100000000E-03 0.  1.
         23    2    1    0    0    0  0.12850441206E+02  0.20659511742E+02 -0.18021435386E+02  0.94722592615E+02  0.89753262636E+02 0.  0.
         11    1    3    3    0    0 -0.51311505896E+01  0.32592695844E+02 -0.47717156095E+02  0.58013270161E+02  0.51100000000E-03 0. -1.
         22    1    1    0    0    0 -0.12850441206E+02 -0.20659511742E+02  0.18021435386E+02  0.30277407385E+02  0.00000000000E+00 0. -1.
</event>
<event>
 5    1  0.1096978E-009  0.9118800E+02  0.7818608E-02  0.1130116E+00
         25   -1    0    0    0    0  0.00000000000E+00  0.00000000000E+00  0.99999998245E-14  0.12500000000E+03  0.12500000000E+03 0.  0.
        -11    1    3    3    0    0 -0.19499449379E+02  0.90805876552E+01  0.28017560444E+02  0.35322362488E+02  0.51100000000E-03 0. -1.
         23    2    1    0    0    0  0.21394874620E+02 -0.19004208328E+02 -0.63680975386E+01  0.95683566717E+02  0.91081785661E+02 0.  0.
         11    1    3    3    0    0  0.40894323999E+02 -0.28084795983E+02 -0.34385657983E+02  0.60361204229E+02  0.51100000000E-03 0.  1.
         22    1    1    0    0    0 -0.21394874620E+02  0.19004208328E+02  0.63680975386E+01  0.29316433283E+02  0.00000000000E+00 0.  1.
</event>
<event>
 5    1  0.1096978E-009  0.9118800E+02  0.7818608E-02  0.1130116E+00
         25   -1    0    0    0    0  0.00000000000E+00  0.00000000000E+00  0.99999998245E-14  0.12500000000E+03  0.12500000000E+03 0.  0.
        -11    1    3    3    0    0 -0.51871042434E+02  0.11239761966E+02  0.14736564205E+02  0.55082697983E+02  0.51100000000E-03 0.  1.
         23    2    1    0    0    0 -0.91542941281E+01  0.20874838723E+02  0.12670347242E+02  0.98921317290E+02  0.95421849293E+02 0.  0.
         11    1    3    3    0    0  0.42716748306E+02  0.96350767564E+01 -0.20662169632E+01  0.43838619307E+02  0.51100000000E-03 0. -1.
         22    1    1    0    0    0  0.91542941281E+01 -0.20874838723E+02 -0.12670347242E+02  0.26078682710E+02  0.00000000000E+00 0.  1.
</event>
<event>
 5    1  0.1096978E-009  0.9118800E+02  0.7818608E-02  0.1130116E+00
         25   -1    0    0    0    0  0.00000000000E+00  0.00000000000E+00  0.99999998245E-14  0.12500000000E+03  0.12500000000E+03 0.  0.
        -11    1    3    3    0    0  0.38534898561E+02 -0.36919971197E+02 -0.21232680849E+02  0.57435611049E+02  0.51100000000E-03 0.  1.
         23    2    1    0    0    0  0.10908852404E+02 -0.27050212721E+02  0.32589367252E+01  0.95651444029E+02  0.91037690037E+02 0.  0.
         11    1    3    3    0    0 -0.27626046157E+02  0.98697584761E+01  0.24491617574E+02  0.38215832980E+02  0.51100000000E-03 0. -1.
         22    1    1    0    0    0 -0.10908852404E+02  0.27050212721E+02 -0.32589367252E+01  0.29348555971E+02  0.00000000000E+00 0.  1.
</event>
<event>
 5    1  0.1096978E-009  0.9118800E+02  0.7818608E-02  0.1130116E+00
         25   -1    0    0    0    0  0.00000000000E+00  0.00000000000E+00  0.99999998245E-14  0.12500000000E+03  0.12500000000E+03 0.  0.
        -11    1    3    3    0    0 -0.90336279697E+01  0.33415331498E+02  0.20892760139E+02  0.40431401657E+02  0.51100000000E-03 0.  1.
         23    2    1    0    0    0  0.25699392236E+02 -0.83446069116E+01  0.11850444242E+02  0.95495351984E+02  0.90823113776E+02 0.  0.
         11    1    3    3    0    0  0.34733020206E+02 -0.41759938410E+02 -0.90423158977E+01  0.55063950327E+02  0.51100000000E-03 0. -1.
         22    1    1    0    0    0 -0.25699392236E+02  0.83446069116E+01 -0.11850444242E+02  0.29504648016E+02  0.00000000000E+00 0. -1.
</event>
<event>
 5    1  0.1096978E-009  0.9118800E+02  0.7818608E-02  0.1130116E+00
         25   -1    0    0    0    0  0.00000000000E+00  0.00000000000E+00  0.99999998245E-14  0.12500000000E+03  0.12500000000E+03 0.  0.
        -11    1    3    3    0    0 -0.24957617342E+02 -0.20706777465E+02 -0.18087826428E+02  0.37132502764E+02  0.51100000000E-03 0. -1.
         23    2    1    0    0    0 -0.49673922299E+01  0.14414160067E+02  0.24691303921E+02  0.95980980628E+02  0.91489043918E+02 0.  0.
         11    1    3    3    0    0  0.19990225112E+02  0.35120937531E+02  0.42779130349E+02  0.58848477864E+02  0.51100000000E-03 0.  1.
         22    1    1    0    0    0  0.49673922299E+01 -0.14414160067E+02 -0.24691303921E+02  0.29019019372E+02  0.00000000000E+00 0.  1.
</event>
<event>
 5    1  0.1096978E-009  0.9118800E+02  0.7818608E-02  0.1130116E+00
         25   -1    0    0    0    0  0.00000000000E+00  0.00000000000E+00  0.99999998245E-14  0.12500000000E+03  0.12500000000E+03 0.  0.
        -11    1    3    3    0    0  0.36144503674E+02  0.14707676103E+01 -0.27738600648E+02  0.45585285667E+02  0.51100000000E-03 0. -1.
         23    2    1    0    0    0  0.20228068214E+02  0.37573362899E+00  0.20382001667E+02  0.96281679865E+02  0.91898966078E+02 0.  0.
         11    1    3    3    0    0 -0.15916435460E+02 -0.10950339813E+01  0.48120602316E+02  0.50696394198E+02  0.51100000000E-03 0.  1.
         22    1    1    0    0    0 -0.20228068214E+02 -0.37573362899E+00 -0.20382001667E+02  0.28718320135E+02  0.00000000000E+00 0. -1.
</event>
<event>
 5    1  0.1096978E-009  0.9118800E+02  0.7818608E-02  0.1130116E+00
         25   -1    0    0    0    0  0.00000000000E+00  0.00000000000E+00  0.99999998245E-14  0.12500000000E+03  0.12500000000E+03 0.  0.
        -11    1    3    3    0    0  0.56019182419E+01 -0.35285291667E+01  0.34098497766E+02  0.34735278266E+02  0.51100000000E-03 0. -1.
         23    2    1    0    0    0 -0.69953554485E+01 -0.17257751582E+02 -0.23352262156E+02  0.95132071794E+02  0.90321746819E+02 0.  0.
         11    1    3    3    0    0 -0.12597273690E+02 -0.13729222416E+02 -0.57450759922E+02  0.60396793528E+02  0.51100000000E-03 0.  1.
         22    1    1    0    0    0  0.69953554485E+01  0.17257751582E+02  0.23352262156E+02  0.29867928206E+02  0.00000000000E+00 0.  1.
</event>
<event>
 5    1  0.1096978E-009  0.9118800E+02  0.7818608E-02  0.1130116E+00
         25   -1    0    0    0    0  0.00000000000E+00  0.00000000000E+00  0.99999998245E-14  0.12500000000E+03  0.12500000000E+03 0.  0.
        -11    1    3    3    0    0  0.33189305555E+02  0.31772881324E+02  0.15555635930E+02  0.48507976667E+02  0.51100000000E-03 0.  1.
         23    2    1    0    0    0  0.24385479273E+02 -0.14110090718E+02  0.59240307655E+01  0.96210411605E+02  0.91801976565E+02 0.  0.
         11    1    3    3    0    0 -0.88038262823E+01 -0.45882972043E+02 -0.96316051649E+01  0.47702434938E+02  0.51100000000E-03 0. -1.
         22    1    1    0    0    0 -0.24385479273E+02  0.14110090718E+02 -0.59240307655E+01  0.28789588395E+02  0.00000000000E+00 0.  1.
</event>
<event>
 5    1  0.1096978E-009  0.9118800E+02  0.7818608E-02  0.1130116E+00
         25   -1    0    0    0    0  0.00000000000E+00  0.00000000000E+00  0.99999998245E-14  0.12500000000E+03  0.12500000000E+03 0.  0.
        -11    1    3    3    0    0 -0.50912935015E+01 -0.30905191185E+02 -0.48971437402E+02  0.58131349487E+02  0.51100000000E-03 0.  1.
         23    2    1    0    0    0 -0.18230402183E+02 -0.14903537413E+02 -0.18112476578E+02  0.95292681054E+02  0.90543747788E+02 0.  0.
         11    1    3    3    0    0 -0.13139108682E+02  0.16001653772E+02  0.30858960825E+02  0.37161331567E+02  0.51100000000E-03 0. -1.
         22    1    1    0    0    0  0.18230402183E+02  0.14903537413E+02  0.18112476578E+02  0.29707318946E+02  0.00000000000E+00 0.  1.
</event>
<event>
 5    1  0.1096978E-009  0.9118800E+02  0.7818608E-02  0.1130116E+00
         25   -1    0    0    0    0  0.00000000000E+00  0.00000000000E+00  0.99999998245E-14  0.12500000000E+03  0.12500000000E+03 0.  0.
        -11    1    3    3    0    0  0.15442874410E+02 -0.74546258475E+01  0.58789019251E+02  0.61238897780E+02  0.51100000000E-03 0.  1.
         23    2    1    0    0    0  0.10256487659E+02  0.45393009370E+01  0.32934759607E+02  0.90207771235E+02  0.83228257273E+02 0.  0.
         11    1    3    3    0    0 -0.51863867515E+01  0.11993926784E+02 -0.25854259644E+02  0.28968873455E+02  0.51100000000E-03 0. -1.
         22    1    1    0    0    0 -0.10256487659E+02 -0.45393009370E+01 -0.32934759607E+02  0.34792228765E+02  0.00000000000E+00 0.  1.
</event>
<event>
 5    1  0.1096978E-009  0.9118800E+02  0.7818608E-02  0.1130116E+00
         25   -1    0    0    0    0  0.00000000000E+00  0.00000000000E+00  0.99999998245E-14  0.12500000000E+03  0.12500000000E+03 0.  0.
        -11    1    3    3    0    0 -0.11107679638E+02  0.34768540820E+02 -0.75521346897E+01  0.37272868368E+02  0.51100000000E-03 0. -1.
         23    2    1    0    0    0  0.22238419692E+02 -0.13044786001E+02 -0.13550857099E+02  0.95873732125E+02  0.91342394490E+02 0.  0.
         11    1    3    3    0    0  0.33346099330E+02 -0.47813326821E+02 -0.59987224097E+01  0.58600863757E+02  0.51100000000E-03 0.  1.
         22    1    1    0    0    0 -0.22238419692E+02  0.13044786001E+02  0.13550857099E+02  0.29126267875E+02  0.00000000000E+00 0.  1.
</event>
<event>
 5    1  0.1096978E-009  0.9118800E+02  0.7818608E-02  0.1130116E+00
         25   -1    0    0    0    0  0.00000000000E+00  0.00000000000E+00  0.99999998245E-14  0.12500000000E+03  0.12500000000E+03 0.  0.
        -11    1    3    3    0    0  0.17014944287E+02  0.13083385621E+02 -0.56870989279E+02  0.60786451864E+02  0.51100000000E-03 0.  1.
         23    2    1    0    0    0  0.16015328125E+02  0.10606702704E+02 -0.21859568766E+02  0.95899594095E+02  0.91377779157E+02 0.  0.
         11    1    3    3    0    0 -0.99961616133E+00 -0.24766829168E+01  0.35011420513E+02  0.35113142231E+02  0.51100000000E-03 0. -1.
         22    1    1    0    0    0 -0.16015328125E+02 -0.10606702704E+02  0.21859568766E+02  0.29100405905E+02  0.00000000000E+00 0.  1.
</event>
<event>
 5    1  0.1096978E-009  0.9118800E+02  0.7818608E-02  0.1130116E+00
         25   -1    0    0    0    0  0.00000000000E+00  0.00000000000E+00  0.99999998245E-14  0.12500000000E+03  0.12500000000E+03 0.  0.
        -11    1    3    3    0    0 -0.50899198223E+02 -0.75396889321E+01  0.24762200555E+02  0.57102905929E+02  0.51100000000E-03 0.  1.
         23    2    1    0    0    0 -0.15381622348E+02  0.75098994103E+01  0.23793083119E+02  0.95689529183E+02  0.91089968140E+02 0.  0.
         11    1    3    3    0    0  0.35517575875E+02  0.15049588342E+02 -0.96911743649E+00  0.38586623254E+02  0.51100000000E-03 0. -1.
         22    1    1    0    0    0  0.15381622348E+02 -0.75098994103E+01 -0.23793083119E+02  0.29310470817E+02  0.00000000000E+00 0.  1.
</event>
<event>
 5    1  0.1096978E-009  0.9118800E+02  0.7818608E-02  0.1130116E+00
         25   -1    0    0    0    0  0.00000000000E+00  0.00000000000E+00  0.99999998245E-14  0.12500000000E+03  0.12500000000E+03 0.  0.
        -11    1    3    3    0    0 -0.99158870677E+01  0.31817380295E+02 -0.21908696035E+02  0.39883097515E+02  0.51100000000E-03 0. -1.
         23    2    1    0    0    0 -0.14389566952E+02  0.49755093675E+01  0.25936116613E+02  0.94925135487E+02  0.90034903630E+02 0.  0.
         11    1    3    3    0    0 -0.44736798845E+01 -0.26841870927E+02  0.47844812648E+02  0.55042037972E+02  0.51100000000E-03 0.  1.
         22    1    1    0    0    0  0.14389566952E+02 -0.49755093675E+01 -0.25936116613E+02  0.30074864513E+02  0.00000000000E+00 0.  1.
</event>
<event>
 5    1  0.1096978E-009  0.9118800E+02  0.7818608E-02  0.1130116E+00
         25   -1    0    0    0    0  0.00000000000E+00  0.00000000000E+00  0.99999998245E-14  0.12500000000E+03  0.12500000000E+03 0.  0.
        -11    1    3    3    0    0  0.35778859337E+02 -0.35896075053E+02  0.28935229330E+02  0.58360110318E+02  0.51100000000E-03 0. -1.
         23    2    1    0    0    0  0.24498951975E+02 -0.23345701742E+01  0.11160454772E+02  0.97977701495E+02  0.94177626716E+02 0.  0.
         11    1    3    3    0    0 -0.11279907363E+02  0.33561504879E+02 -0.17774774558E+02  0.39617591177E+02  0.51100000000E-03 0.  1.
         22    1    1    0    0    0 -0.24498951975E+02  0.23345701742E+01 -0.11160454772E+02  0.27022298505E+02  0.00000000000E+00 0. -1.
</event>
<event>
 5    1  0.1096978E-009  0.9118800E+02  0.7818608E-02  0.1130116E+00
         25   -1    0    0    0    0  0.00000000000E+00  0.00000000000E+00  0.99999998245E-14  0.12500000000E+03  0.12500000000E+03 0.  0.
        -11    1    3    3    0    0 -0.35579935444E+02  0.22890922493E+02 -0.14993548004E+02  0.44885773033E+02  0.51100000000E-03 0.  1.
         23    2    1    0    0    0  0.15046318138E+02  0.22962867054E+02 -0.10098805104E+02  0.95748148480E+02  0.91170374135E+02 0.  0.
         11    1    3    3    0    0  0.50626253582E+02  0.71944561211E-01  0.48947429008E+01  0.50862375447E+02  0.51100000000E-03 0. -1.
         22    1    1    0    0    0 -0.15046318138E+02 -0.22962867054E+02  0.10098805104E+02  0.29251851520E+02  0.00000000000E+00 0. -1.
</event>
<event>
 5    1  0.1096978E-009  0.9118800E+02  0.7818608E-02  0.1130116E+00
         25   -1    0    0    0    0  0.00000000000E+00  0.00000000000E+00  0.99999998245E-14  0.12500000000E+03  0.12500000000E+03 0.  0.
        -11    1    3    3    0    0 -0.41081339141E+02 -0.31461666903E+02 -0.12391489929E+02  0.53207724372E+02  0.51100000000E-03 0. -1.
         23    2    1    0    0    0 -0.19731717913E+01 -0.19011663414E+02 -0.22501040692E+02  0.95476558722E+02  0.90797244895E+02 0.  0.
         11    1    3    3    0    0  0.39108167350E+02  0.12450003489E+02 -0.10109550763E+02  0.42268834349E+02  0.51100000000E-03 0.  1.
         22    1    1    0    0    0  0.19731717913E+01  0.19011663414E+02  0.22501040692E+02  0.29523441278E+02  0.00000000000E+00 0.  1.
</event>
<event>
 5    1  0.1096978E-009  0.9118800E+02  0.7818608E-02  0.1130116E+00
         25   -1    0    0    0    0  0.00000000000E+00  0.00000000000E+00  0.99999998245E-14  0.12500000000E+03  0.12500000000E+03 0.  0.
        -11    1    3    3    0    0 -0.97772584397E+01  0.35609305221E+02 -0.33729592978E+02  0.50013026739E+02  0.51100000000E-03 0. -1.
         23    2    1    0    0    0  0.11537799974E+01 -0.84429092294E+01 -0.27964663082E+02  0.95765836666E+02  0.91194622465E+02 0.  0.
         11    1    3    3    0    0  0.10931038437E+02 -0.44052214450E+02  0.57649298962E+01  0.45752809927E+02  0.51100000000E-03 0.  1.
         22    1    1    0    0    0 -0.11537799974E+01  0.84429092294E+01  0.27964663082E+02  0.29234163334E+02  0.00000000000E+00 0. -1.
</event>
<event>
 5    1  0.1096978E-009  0.9118800E+02  0.7818608E-02  0.1130116E+00
         25   -1    0    0    0    0  0.00000000000E+00  0.00000000000E+00  0.99999998245E-14  0.12500000000E+03  0.12500000000E+03 0.  0.
        -11    1    3    3    0    0 -0.41950364477E+02 -0.29083305677E+02  0.33350063205E+01  0.51154608945E+02  0.51100000000E-03 0.  1.
         23    2    1    0    0    0 -0.10417967940E+02 -0.76196465702E+01  0.26317747817E+02  0.95687597847E+02  0.91087317787E+02 0.  0.
         11    1    3    3    0    0  0.31532396537E+02  0.21463659107E+02  0.22982741496E+02  0.44532988902E+02  0.51100000000E-03 0. -1.
         22    1    1    0    0    0  0.10417967940E+02  0.76196465702E+01 -0.26317747817E+02  0.29312402153E+02  0.00000000000E+00 0.  1.
</event>
<event>
 5    1  0.1096978E-009  0.9118800E+02  0.7818608E-02  0.1130116E+00
         25   -1    0    0    0    0  0.00000000000E+00  0.00000000000E+00  0.99999998245E-14  0.12500000000E+03  0.12500000000E+03 0.  0.
        -11    1    3    3    0    0  0.11021352360E+02  0.30647254938E+02  0.25122312427E+02  0.41132165334E+02  0.51100000000E-03 0.  1.
         23    2    1    0    0    0 -0.20416984642E+02  0.12659998077E+02 -0.16156543209E+02  0.96048960267E+02  0.91581876300E+02 0.  0.
         11    1    3    3    0    0 -0.31438337002E+02 -0.17987256861E+02 -0.41278855635E+02  0.54916794933E+02  0.51100000000E-03 0. -1.
         22    1    1    0    0    0  0.20416984642E+02 -0.12659998077E+02  0.16156543209E+02  0.28951039733E+02  0.00000000000E+00 0.  1.
</event>
<event>
 5    1  0.1096978E-009  0.9118800E+02  0.7818608E-02  0.1130116E+00
         25   -1    0    0    0    0  0.00000000000E+00  0.00000000000E+00  0.99999998245E-14  0.12500000000E+03  0.12500000000E+03 0.  0.
        -11    1    3    3    0    0 -0.29844915158E+02  0.95497617206E+01 -0.21190501707E+02  0.37827956231E+02  0.51100000000E-03 0.  1.
         23    2    1    0    0    0  0.20814353537E+02  0.19959397489E+02  0.48916627188E+01  0.95750329482E+02  0.91173364369E+02 0.  0.
         11    1    3    3    0    0  0.50659268696E+02  0.10409635768E+02  0.26082164426E+02  0.57922373251E+02  0.51100000000E-03 0. -1.
         22    1    1    0    0    0 -0.20814353537E+02 -0.19959397489E+02 -0.48916627188E+01  0.29249670518E+02  0.00000000000E+00 0. -1.
</event>
<event>
 5    1  0.1096978E-009  0.9118800E+02  0.7818608E-02  0.1130116E+00
         25   -1    0    0    0    0  0.00000000000E+00  0.00000000000E+00  0.99999998245E-14  0.12500000000E+03  0.12500000000E+03 0.  0.
        -11    1    3    3    0    0 -0.11658889107E+02 -0.14453147872E+02  0.32096051689E+02  0.37080718883E+02  0.51100000000E-03 0.  1.
         23    2    1    0    0    0  0.14819860924E+02  0.24563939800E+02 -0.34134801306E+01  0.96109391441E+02  0.91664321632E+02 0.  0.
         11    1    3    3    0    0  0.26478750031E+02  0.39017087672E+02 -0.35509531820E+02  0.59028672558E+02  0.51100000000E-03 0. -1.
         22    1    1    0    0    0 -0.14819860924E+02 -0.24563939800E+02  0.34134801306E+01  0.28890608559E+02  0.00000000000E+00 0. -1.
</event>
<event>
 5    1  0.1096978E-009  0.9118800E+02  0.7818608E-02  0.1130116E+00
         25   -1    0    0    0    0  0.00000000000E+00  0.00000000000E+00  0.99999998245E-14  0.12500000000E+03  0.12500000000E+03 0.  0.
        -11    1    3    3    0    0  0.30529150189E+02  0.28447906813E+02 -0.63093373702E+01  0.42203319201E+02  0.51100000000E-03 0. -1.
         23    2    1    0    0    0 -0.19609595810E+02  0.18223087416E+02 -0.15312867037E+02  0.94160073611E+02  0.88966389174E+02 0.  0.
         11    1    3    3    0    0 -0.50138745999E+02 -0.10224819397E+02 -0.90035296670E+01  0.51956754409E+02  0.51100000000E-03 0.  1.
         22    1    1    0    0    0  0.19609595810E+02 -0.18223087416E+02  0.15312867037E+02  0.30839926389E+02  0.00000000000E+00 0.  1.
</event>
<event>
 5    1  0.1096978E-009  0.9118800E+02  0.7818608E-02  0.1130116E+00
         25   -1    0    0    0    0  0.00000000000E+00  0.00000000000E+00  0.99999998245E-14  0.12500000000E+03  0.12500000000E+03 0.  0.
        -11    1    3    3    0    0  0.41946022803E+02 -0.18581783633E+02  0.23302141225E+01  0.45936710920E+02  0.51100000000E-03 0.  1.
         23    2    1    0    0    0  0.27380489345E+02  0.22343146971E+02  0.41676272780E+01  0.89415220522E+02  0.82029294344E+02 0.  0.
         11    1    3    3    0    0 -0.14565533459E+02  0.40924930604E+02  0.18374131555E+01  0.43478509603E+02  0.51100000000E-03 0. -1.
         22    1    1    0    0    0 -0.27380489345E+02 -0.22343146971E+02 -0.41676272780E+01  0.35584779478E+02  0.00000000000E+00 0.  1.
</event>
<event>
 5    1  0.1096978E-009  0.9118800E+02  0.7818608E-02  0.1130116E+00
         25   -1    0    0    0    0  0.00000000000E+00  0.00000000000E+00  0.99999998245E-14  0.12500000000E+03  0.12500000000E+03 0.  0.
        -11    1    3    3    0    0 -0.29137128395E+02 -0.39482294775E+02  0.21050330353E+02  0.53394196876E+02  0.51100000000E-03 0.  1.
         23    2    1    0    0    0 -0.22394982116E+02  0.25369397065E+01  0.18172565015E+02  0.96048084583E+02  0.91580681073E+02 0.  0.
         11    1    3    3    0    0  0.67421462787E+01  0.42019234482E+02 -0.28777653377E+01  0.42653887707E+02  0.51100000000E-03 0. -1.
         22    1    1    0    0    0  0.22394982116E+02 -0.25369397065E+01 -0.18172565015E+02  0.28951915417E+02  0.00000000000E+00 0. -1.
</event>
<event>
 5    1  0.1096978E-009  0.9118800E+02  0.7818608E-02  0.1130116E+00
         25   -1    0    0    0    0  0.00000000000E+00  0.00000000000E+00  0.99999998245E-14  0.12500000000E+03  0.12500000000E+03 0.  0.
        -11    1    3    3    0    0 -0.74915714965E+01  0.33654799456E+02 -0.30013540872E+02  0.45711943798E+02  0.51100000000E-03 0. -1.
         23    2    1    0    0    0  0.23392763609E+02  0.16816287353E+02  0.54687907993E+01  0.95675665695E+02  0.91070941709E+02 0.  0.
         11    1    3    3    0    0  0.30884335105E+02 -0.16838512103E+02  0.35482331671E+02  0.49963721897E+02  0.51100000000E-03 0.  1.
         22    1    1    0    0    0 -0.23392763609E+02 -0.16816287353E+02 -0.54687907993E+01  0.29324334305E+02  0.00000000000E+00 0. -1.
</event>
<event>
 5    1  0.1096978E-009  0.9118800E+02  0.7818608E-02  0.1130116E+00
         25   -1    0    0    0    0  0.00000000000E+00  0.00000000000E+00  0.99999998245E-14  0.12500000000E+03  0.12500000000E+03 0.  0.
        -11    1    3    3    0    0  0.24341697701E+02 -0.10854265688E+02  0.18826925988E+02  0.32631066073E+02  0.51100000000E-03 0.  1.
         23    2    1    0    0    0 -0.14979738742E+02 -0.25271903012E+01 -0.27266241465E+02  0.93787387370E+02  0.88441205568E+02 0.  0.
         11    1    3    3    0    0 -0.39321436443E+02  0.83270753872E+01 -0.46093167453E+02  0.61156321297E+02  0.51100000000E-03 0. -1.
         22    1    1    0    0    0  0.14979738742E+02  0.25271903012E+01  0.27266241465E+02  0.31212612630E+02  0.00000000000E+00 0. -1.
</event>
<event>
 5    1  0.1096978E-009  0.9118800E+02  0.7818608E-02  0.1130116E+00
         25   -1    0    0    0    0  0.00000000000E+00  0.00000000000E+00  0.99999998245E-14  0.12500000000E+03  0.12500000000E+03 0.  0.
        -11    1    3    3    0    0  0.21967444913E+02 -0.22587820984E+01 -0.37155260031E+02  0.43222495078E+02  0.51100000000E-03 0.  1.
         23    2    1    0    0    0  0.25498264241E+02 -0.11217442396E+02  0.12975443154E+02  0.94269646630E+02  0.89120209029E+02 0.  0.
         11    1    3    3    0    0  0.35308193288E+01 -0.89586602980E+01  0.50130703185E+02  0.51047151551E+02  0.51100000000E-03 0. -1.
         22    1    1    0    0    0 -0.25498264241E+02  0.11217442396E+02 -0.12975443154E+02  0.30730353370E+02  0.00000000000E+00 0. -1.
</event>
<event>
 5    1  0.1096978E-009  0.9118800E+02  0.7818608E-02  0.1130116E+00
         25   -1    0    0    0    0  0.00000000000E+00  0.00000000000E+00  0.99999998245E-14  0.12500000000E+03  0.12500000000E+03 0.  0.
        -11    1    3    3    0    0  0.21688897336E+02  0.26992482598E+02 -0.16679439429E+02  0.38434438781E+02  0.51100000000E-03 0. -1.
         23    2    1    0    0    0 -0.22665545041E+02 -0.10154002153E+02 -0.14306895127E+02  0.96337865748E+02  0.91975357771E+02 0.  0.
         11    1    3    3    0    0 -0.44354442376E+02 -0.37146484751E+02  0.23725443028E+01  0.57903426968E+02  0.51100000000E-03 0.  1.
         22    1    1    0    0    0  0.22665545041E+02  0.10154002153E+02  0.14306895127E+02  0.28662134252E+02  0.00000000000E+00 0.  1.
</event>
<event>
 5    1  0.1096978E-009  0.9118800E+02  0.7818608E-02  0.1130116E+00
         25   -1    0    0    0    0  0.00000000000E+00  0.00000000000E+00  0.99999998245E-14  0.12500000000E+03  0.12500000000E+03 0.  0.
        -11    1    3    3    0    0 -0.24379272215E+02 -0.27703663832E+02 -0.11104357725E+02  0.38537626603E+02  0.51100000000E-03 0.  1.
         23    2    1    0    0    0 -0.39392944880E+02 -0.74279930189E+01  0.21300066677E+02  0.79605374470E+02  0.65393758246E+02 0.  0.
         11    1    3    3    0    0 -0.15013672665E+02  0.20275670813E+02  0.32404424402E+02  0.41067747867E+02  0.51100000000E-03 0. -1.
         22    1    1    0    0    0  0.39392944880E+02  0.74279930189E+01 -0.21300066677E+02  0.45394625530E+02  0.00000000000E+00 0. -1.
</event>
<event>
 5    1  0.1096978E-009  0.9118800E+02  0.7818608E-02  0.1130116E+00
         25   -1    0    0    0    0  0.00000000000E+00  0.00000000000E+00  0.99999998245E-14  0.12500000000E+03  0.12500000000E+03 0.  0.
        -11    1    3    3    0    0  0.31904594685E+02 -0.26783729101E+02  0.40894225786E+02  0.58374729203E+02  0.51100000000E-03 0.  1.
         23    2    1    0    0    0  0.21307034021E+01 -0.22242819171E+02  0.15069116172E+02  0.98048911639E+02  0.94272095074E+02 0.  0.
         11    1    3    3    0    0 -0.29773891283E+02  0.45409099301E+01 -0.25825109614E+02  0.39674182436E+02  0.51100000000E-03 0. -1.
         22    1    1    0    0    0 -0.21307034021E+01  0.22242819171E+02 -0.15069116172E+02  0.26951088361E+02  0.00000000000E+00 0.  1.
</event>
<event>
 5    1  0.1096978E-009  0.9118800E+02  0.7818608E-02  0.1130116E+00
         25   -1    0    0    0    0  0.00000000000E+00  0.00000000000E+00  0.99999998245E-14  0.12500000000E+03  0.12500000000E+03 0.  0.
        -11    1    3    3    0    0 -0.11402941116E+02 -0.45183248917E+02 -0.21972667762E+01  0.46651699115E+02  0.51100000000E-03 0. -1.
         23    2    1    0    0    0  0.23462386994E+02 -0.13150956230E+02  0.11211823030E+02  0.95860057843E+02  0.91323679628E+02 0.  0.
         11    1    3    3    0    0  0.34865328110E+02  0.32032292687E+02  0.13409089806E+02  0.49208358728E+02  0.51100000000E-03 0.  1.
         22    1    1    0    0    0 -0.23462386994E+02  0.13150956230E+02 -0.11211823030E+02  0.29139942157E+02  0.00000000000E+00 0. -1.
</event>
<event>
 5    1  0.1096978E-009  0.9118800E+02  0.7818608E-02  0.1130116E+00
         25   -1    0    0    0    0  0.00000000000E+00  0.00000000000E+00  0.99999998245E-14  0.12500000000E+03  0.12500000000E+03 0.  0.
        -11    1    3    3    0    0 -0.26674644779E+02 -0.25605514817E+02  0.13451801404E+02  0.39346283489E+02  0.51100000000E-03 0. -1.
         23    2    1    0    0    0  0.19687407463E+02 -0.92141123078E+01 -0.17190986014E+02  0.97286756264E+02  0.93256040373E+02 0.  0.
         11    1    3    3    0    0  0.46362052242E+02  0.16391402509E+02 -0.30642787419E+02  0.57940472775E+02  0.51100000000E-03 0.  1.
         22    1    1    0    0    0 -0.19687407463E+02  0.92141123078E+01  0.17190986014E+02  0.27713243736E+02  0.00000000000E+00 0.  1.
</event>
<event>
 5    1  0.1096978E-009  0.9118800E+02  0.7818608E-02  0.1130116E+00
         25   -1    0    0    0    0  0.00000000000E+00  0.00000000000E+00  0.99999998245E-14  0.12500000000E+03  0.12500000000E+03 0.  0.
        -11    1    3    3    0    0  0.18121277969E+02  0.36723481421E+02  0.25536592009E+02  0.48260877889E+02  0.51100000000E-03 0. -1.
         23    2    1    0    0    0  0.26697673157E+02  0.68744821025E+01 -0.10198537513E+02  0.95605537535E+02  0.90974635937E+02 0.  0.
         11    1    3    3    0    0  0.85763951879E+01 -0.29848999319E+02 -0.35735129522E+02  0.47344659646E+02  0.51100000000E-03 0.  1.
         22    1    1    0    0    0 -0.26697673157E+02 -0.68744821025E+01  0.10198537513E+02  0.29394462465E+02  0.00000000000E+00 0. -1.
</event>
<event>
 5    1  0.1096978E-009  0.9118800E+02  0.7818608E-02  0.1130116E+00
         25   -1    0    0    0    0  0.00000000000E+00  0.00000000000E+00  0.99999998245E-14  0.12500000000E+03  0.12500000000E+03 0.  0.
        -11    1    3    3    0    0  0.14670886164E+02  0.26535686303E+02 -0.24397959480E+02  0.38918350112E+02  0.51100000000E-03 0. -1.
         23    2    1    0    0    0 -0.13470481349E+02 -0.22078670171E+02 -0.12218484278E+02  0.96395578972E+02  0.92053760070E+02 0.  0.
         11    1    3    3    0    0 -0.28141367512E+02 -0.48614356475E+02  0.12179475202E+02  0.57477228859E+02  0.51100000000E-03 0.  1.
         22    1    1    0    0    0  0.13470481349E+02  0.22078670171E+02  0.12218484278E+02  0.28604421028E+02  0.00000000000E+00 0.  1.
</event>
<event>
 5    1  0.1096978E-009  0.9118800E+02  0.7818608E-02  0.1130116E+00
         25   -1    0    0    0    0  0.00000000000E+00  0.00000000000E+00  0.99999998245E-14  0.12500000000E+03  0.12500000000E+03 0.  0.
        -11    1    3    3    0    0  0.36590321912E+02  0.36937593288E+02  0.57823876898E+01  0.52313224553E+02  0.51100000000E-03 0.  1.
         23    2    1    0    0    0 -0.84727524701E+00  0.20415429349E+02  0.20742780116E+02  0.95883500248E+02  0.91355760967E+02 0.  0.
         11    1    3    3    0    0 -0.37437597159E+02 -0.16522163938E+02  0.14960392427E+02  0.43570275694E+02  0.51100000000E-03 0. -1.
         22    1    1    0    0    0  0.84727524701E+00 -0.20415429349E+02 -0.20742780116E+02  0.29116499752E+02  0.00000000000E+00 0. -1.
</event>
<event>
 5    1  0.1096978E-009  0.9118800E+02  0.7818608E-02  0.1130116E+00
         25   -1    0    0    0    0  0.00000000000E+00  0.00000000000E+00  0.99999998245E-14  0.12500000000E+03  0.12500000000E+03 0.  0.
        -11    1    3    3    0    0  0.60206057833E+02  0.21098539480E+01  0.61334139555E+01  0.60554435432E+02  0.51100000000E-03 0. -1.
         23    2    1    0    0    0  0.25254274552E+02  0.10525646137E+02  0.78192110329E+01  0.96544637220E+02  0.92255944551E+02 0.  0.
         11    1    3    3    0    0 -0.34951783281E+02  0.84157921890E+01  0.16857970773E+01  0.35990201788E+02  0.51100000000E-03 0.  1.
         22    1    1    0    0    0 -0.25254274552E+02 -0.10525646137E+02 -0.78192110329E+01  0.28455362780E+02  0.00000000000E+00 0. -1.
</event>
<event>
 5    1  0.1096978E-009  0.9118800E+02  0.7818608E-02  0.1130116E+00
         25   -1    0    0    0    0  0.00000000000E+00  0.00000000000E+00  0.99999998245E-14  0.12500000000E+03  0.12500000000E+03 0.  0.
        -11    1    3    3    0    0 -0.37202664799E+02  0.30229259309E+02 -0.73900813176E+01  0.48502161690E+02  0.51100000000E-03 0.  1.
         23    2    1    0    0    0 -0.17029257409E+02 -0.12175124562E+02 -0.18840262480E+02  0.96836464065E+02  0.92650504674E+02 0.  0.
         11    1    3    3    0    0  0.20173407389E+02 -0.42404383871E+02 -0.11450181163E+02  0.48334302375E+02  0.51100000000E-03 0. -1.
         22    1    1    0    0    0  0.17029257409E+02  0.12175124562E+02  0.18840262480E+02  0.28163535935E+02  0.00000000000E+00 0. -1.
</event>
<event>
 5    1  0.1096978E-009  0.9118800E+02  0.7818608E-02  0.1130116E+00
         25   -1    0    0    0    0  0.00000000000E+00  0.00000000000E+00  0.99999998245E-14  0.12500000000E+03  0.12500000000E+03 0.  0.
        -11    1    3    3    0    0 -0.24028793931E+02 -0.14730701973E+02  0.38252190959E+02  0.47514278189E+02  0.51100000000E-03 0. -1.
         23    2    1    0    0    0 -0.20424103883E+02 -0.37113244716E+02  0.14815017745E+02  0.80122146847E+02  0.66374217222E+02 0.  0.
         11    1    3    3    0    0  0.36046900480E+01 -0.22382542743E+02 -0.23437173213E+02  0.32607868659E+02  0.51100000000E-03 0.  1.
         22    1    1    0    0    0  0.20424103883E+02  0.37113244716E+02 -0.14815017745E+02  0.44877853153E+02  0.00000000000E+00 0. -1.
</event>
<event>
 5    1  0.1096978E-009  0.9118800E+02  0.7818608E-02  0.1130116E+00
         25   -1    0    0    0    0  0.00000000000E+00  0.00000000000E+00  0.99999998245E-14  0.12500000000E+03  0.12500000000E+03 0.  0.
        -11    1    3    3    0    0  0.17730025697E+02  0.28882621161E+02  0.40075717951E+02  0.52484500435E+02  0.51100000000E-03 0.  1.
         23    2    1    0    0    0  0.44604361568E+00 -0.78562046649E+01  0.29538975340E+02  0.94430898430E+02  0.89346094529E+02 0.  0.
         11    1    3    3    0    0 -0.17283982082E+02 -0.36738825826E+02 -0.10536742611E+02  0.41946397995E+02  0.51100000000E-03 0. -1.
         22    1    1    0    0    0 -0.44604361568E+00  0.78562046649E+01 -0.29538975340E+02  0.30569101570E+02  0.00000000000E+00 0.  1.
</event>
<event>
 5    1  0.1096978E-009  0.9118800E+02  0.7818608E-02  0.1130116E+00
         25   -1    0    0    0    0  0.00000000000E+00  0.00000000000E+00  0.99999998245E-14  0.12500000000E+03  0.12500000000E+03 0.  0.
        -11    1    3    3    0    0  0.16063656828E+02 -0.40853481055E+02  0.10778618408E+01  0.43911385442E+02  0.51100000000E-03 0.  1.
         23    2    1    0    0    0 -0.87763668309E+01  0.40618720654E+01  0.23247526287E+02  0.99821221279E+02  0.96593505577E+02 0.  0.
         11    1    3    3    0    0 -0.24840023659E+02  0.44915353121E+02  0.22169664446E+02  0.55909835837E+02  0.51100000000E-03 0. -1.
         22    1    1    0    0    0  0.87763668309E+01 -0.40618720654E+01 -0.23247526287E+02  0.25178778721E+02  0.00000000000E+00 0. -1.
</event>
<event>
 5    1  0.1096978E-009  0.9118800E+02  0.7818608E-02  0.1130116E+00
         25   -1    0    0    0    0  0.00000000000E+00  0.00000000000E+00  0.99999998245E-14  0.12500000000E+03  0.12500000000E+03 0.  0.
        -11    1    3    3    0    0  0.23402519866E+02  0.18680832607E+02 -0.16627960635E+02  0.34251138931E+02  0.51100000000E-03 0. -1.
         23    2    1    0    0    0 -0.20546397814E+02  0.13414839718E+01  0.21698145693E+02  0.95087401168E+02  0.90259904121E+02 0.  0.
         11    1    3    3    0    0 -0.43948917680E+02 -0.17339348635E+02  0.38326106328E+02  0.60836262236E+02  0.51100000000E-03 0.  1.
         22    1    1    0    0    0  0.20546397814E+02 -0.13414839718E+01 -0.21698145693E+02  0.29912598832E+02  0.00000000000E+00 0.  1.
</event>
<event>
 5    1  0.1096978E-009  0.9118800E+02  0.7818608E-02  0.1130116E+00
         25   -1    0    0    0    0  0.00000000000E+00  0.00000000000E+00  0.99999998245E-14  0.12500000000E+03  0.12500000000E+03 0.  0.
        -11    1    3    3    0    0 -0.16056027478E+02  0.39989091649E+02 -0.41358978623E+02  0.59728457056E+02  0.51100000000E-03 0.  1.
         23    2    1    0    0    0 -0.14455047394E+02  0.78920827729E+01 -0.22910920532E+02  0.96783982469E+02  0.92579671728E+02 0.  0.
         11    1    3    3    0    0  0.16009800841E+01 -0.32097008876E+02  0.18448058091E+02  0.37055525413E+02  0.51100000000E-03 0. -1.
         22    1    1    0    0    0  0.14455047394E+02 -0.78920827729E+01  0.22910920532E+02  0.28216017531E+02  0.00000000000E+00 0.  1.
</event>
<event>
 5    1  0.1096978E-009  0.9118800E+02  0.7818608E-02  0.1130116E+00
         25   -1    0    0    0    0  0.00000000000E+00  0.00000000000E+00  0.99999998245E-14  0.12500000000E+03  0.12500000000E+03 0.  0.
        -11    1    3    3    0    0 -0.30187782986E+02  0.10775009496E+02 -0.16571324232E+02  0.36083401424E+02  0.51100000000E-03 0.  1.
         23    2    1    0    0    0  0.14235933056E+02 -0.13847377354E+02  0.18541670347E+02  0.97830068296E+02  0.93981471971E+02 0.  0.
         11    1    3    3    0    0  0.44423716042E+02 -0.24622386850E+02  0.35112994580E+02  0.61746666872E+02  0.51100000000E-03 0. -1.
         22    1    1    0    0    0 -0.14235933056E+02  0.13847377354E+02 -0.18541670347E+02  0.27169931704E+02  0.00000000000E+00 0. -1.
</event>
<event>
 5    1  0.1096978E-009  0.9118800E+02  0.7818608E-02  0.1130116E+00
         25   -1    0    0    0    0  0.00000000000E+00  0.00000000000E+00  0.99999998245E-14  0.12500000000E+03  0.12500000000E+03 0.  0.
        -11    1    3    3    0    0 -0.39819961474E+02  0.46758425931E+02 -0.97082216500E+01  0.62179010085E+02  0.51100000000E-03 0. -1.
         23    2    1    0    0    0 -0.17621531256E+02  0.21135988896E+02 -0.88601687788E+01  0.96090641979E+02  0.91638749963E+02 0.  0.
         11    1    3    3    0    0  0.22198430218E+02 -0.25622437035E+02  0.84805287112E+00  0.33911631894E+02  0.51100000000E-03 0.  1.
         22    1    1    0    0    0  0.17621531256E+02 -0.21135988896E+02  0.88601687788E+01  0.28909358021E+02  0.00000000000E+00 0. -1.
</event>
<event>
 5    1  0.1096978E-009  0.9118800E+02  0.7818608E-02  0.1130116E+00
         25   -1    0    0    0    0  0.00000000000E+00  0.00000000000E+00  0.99999998245E-14  0.12500000000E+03  0.12500000000E+03 0.  0.
        -11    1    3    3    0    0 -0.16409850807E+02 -0.11343877463E+02 -0.38923892784E+02  0.43738269160E+02  0.51100000000E-03 0. -1.
         23    2    1    0    0    0 -0.27186961392E+02  0.19609940610E+00  0.10676399136E+02  0.95791185864E+02  0.91229361864E+02 0.  0.
         11    1    3    3    0    0 -0.10777110585E+02  0.11539976869E+02  0.49600291919E+02  0.52052916704E+02  0.51100000000E-03 0.  1.
         22    1    1    0    0    0  0.27186961392E+02 -0.19609940610E+00 -0.10676399136E+02  0.29208814136E+02  0.00000000000E+00 0.  1.
</event>
<event>
 5    1  0.1096978E-009  0.9118800E+02  0.7818608E-02  0.1130116E+00
         25   -1    0    0    0    0  0.00000000000E+00  0.00000000000E+00  0.99999998245E-14  0.12500000000E+03  0.12500000000E+03 0.  0.
        -11    1    3    3    0    0  0.45317581792E+00  0.33427040964E+02 -0.17196615132E+02  0.37593829390E+02  0.51100000000E-03 0.  1.
         23    2    1    0    0    0 -0.14243536325E+02 -0.23031593478E+02 -0.87444865678E+01  0.96543038277E+02  0.92253778076E+02 0.  0.
         11    1    3    3    0    0 -0.14696712143E+02 -0.56458634442E+02  0.84521285638E+01  0.58949208887E+02  0.51100000000E-03 0. -1.
         22    1    1    0    0    0  0.14243536325E+02  0.23031593478E+02  0.87444865678E+01  0.28456961723E+02  0.00000000000E+00 0. -1.
</event>
<event>
 5    1  0.1096978E-009  0.9118800E+02  0.7818608E-02  0.1130116E+00
         25   -1    0    0    0    0  0.00000000000E+00  0.00000000000E+00  0.99999998245E-14  0.12500000000E+03  0.12500000000E+03 0.  0.
        -11    1    3    3    0    0 -0.15395611633E+02 -0.17571733105E+02  0.46602386125E+02  0.52130346773E+02  0.51100000000E-03 0.  1.
         23    2    1    0    0    0  0.55753564573E+01  0.14096464472E+02  0.24824258208E+02  0.95913255496E+02  0.91396465326E+02 0.  0.
         11    1    3    3    0    0  0.20970968091E+02  0.31668197577E+02 -0.21778127917E+02  0.43782908723E+02  0.51100000000E-03 0. -1.
         22    1    1    0    0    0 -0.55753564573E+01 -0.14096464472E+02 -0.24824258208E+02  0.29086744504E+02  0.00000000000E+00 0.  1.
</event>
<event>
 5    1  0.1096978E-009  0.9118800E+02  0.7818608E-02  0.1130116E+00
         25   -1    0    0    0    0  0.00000000000E+00  0.00000000000E+00  0.99999998245E-14  0.12500000000E+03  0.12500000000E+03 0.  0.
        -11    1    3    3    0    0 -0.47697543167E+01 -0.51442845249E+00 -0.39749418719E+02  0.40037875589E+02  0.51100000000E-03 0. -1.
         23    2    1    0    0    0  0.66687295486E+01  0.28236662282E+02  0.61003757703E+01  0.95352139450E+02  0.90625795790E+02 0.  0.
         11    1    3    3    0    0  0.11438483865E+02  0.28751090735E+02  0.45849794490E+02  0.55314263862E+02  0.51100000000E-03 0.  1.
         22    1    1    0    0    0 -0.66687295486E+01 -0.28236662282E+02 -0.61003757703E+01  0.29647860550E+02  0.00000000000E+00 0.  1.
</event>
<event>
 5    1  0.1096978E-009  0.9118800E+02  0.7818608E-02  0.1130116E+00
         25   -1    0    0    0    0  0.00000000000E+00  0.00000000000E+00  0.99999998245E-14  0.12500000000E+03  0.12500000000E+03 0.  0.
        -11    1    3    3    0    0  0.36172353308E+02 -0.32376644169E+02 -0.15729239782E+02  0.51030336231E+02  0.51100000000E-03 0.  1.
         23    2    1    0    0    0  0.19223301356E+02 -0.37614495161E+02  0.93364320608E+01  0.81738533024E+02  0.69351519493E+02 0.  0.
         11    1    3    3    0    0 -0.16949051952E+02 -0.52378509922E+01  0.25065671842E+02  0.30708196793E+02  0.51100000000E-03 0. -1.
         22    1    1    0    0    0 -0.19223301356E+02  0.37614495161E+02 -0.93364320608E+01  0.43261466976E+02  0.00000000000E+00 0.  1.
</event>
<event>
 5    1  0.1096978E-009  0.9118800E+02  0.7818608E-02  0.1130116E+00
         25   -1    0    0    0    0  0.00000000000E+00  0.00000000000E+00  0.99999998245E-14  0.12500000000E+03  0.12500000000E+03 0.  0.
        -11    1    3    3    0    0  0.31788520986E+02  0.14325322521E+02  0.14891251456E+02  0.37914038324E+02  0.51100000000E-03 0. -1.
         23    2    1    0    0    0 -0.18736592532E+02 -0.13820572532E+02 -0.83791273575E+01  0.10025575016E+03  0.97154194661E+02 0.  0.
         11    1    3    3    0    0 -0.50525113518E+02 -0.28145895053E+02 -0.23270378814E+02  0.62341711837E+02  0.51100000000E-03 0.  1.
         22    1    1    0    0    0  0.18736592532E+02  0.13820572532E+02  0.83791273575E+01  0.24744249839E+02  0.00000000000E+00 0.  1.
</event>
<event>
 5    1  0.1096978E-009  0.9118800E+02  0.7818608E-02  0.1130116E+00
         25   -1    0    0    0    0  0.00000000000E+00  0.00000000000E+00  0.99999998245E-14  0.12500000000E+03  0.12500000000E+03 0.  0.
        -11    1    3    3    0    0  0.49648066834E+02 -0.10095234311E+02  0.32815487259E+02  0.60363072324E+02  0.51100000000E-03 0. -1.
         23    2    1    0    0    0  0.28783157149E+02  0.35417882775E+01  0.95288064601E+01  0.94474395138E+02  0.89406928056E+02 0.  0.
         11    1    3    3    0    0 -0.20864909685E+02  0.13637022588E+02 -0.23286680799E+02  0.34111322814E+02  0.51100000000E-03 0.  1.
         22    1    1    0    0    0 -0.28783157149E+02 -0.35417882775E+01 -0.95288064601E+01  0.30525604862E+02  0.00000000000E+00 0. -1.
</event>
<event>
 5    1  0.1096978E-009  0.9118800E+02  0.7818608E-02  0.1130116E+00
         25   -1    0    0    0    0  0.00000000000E+00  0.00000000000E+00  0.99999998245E-14  0.12500000000E+03  0.12500000000E+03 0.  0.
        -11    1    3    3    0    0  0.18302111616E+02  0.22154165946E+02  0.26254023879E+02  0.38923619160E+02  0.51100000000E-03 0.  1.
         23    2    1    0    0    0  0.17860069702E+02 -0.19837181650E+02 -0.12004759764E+02  0.95732097401E+02  0.91148364496E+02 0.  0.
         11    1    3    3    0    0 -0.44204191385E+00 -0.41991347596E+02 -0.38258783643E+02  0.56808478241E+02  0.51100000000E-03 0. -1.
         22    1    1    0    0    0 -0.17860069702E+02  0.19837181650E+02  0.12004759764E+02  0.29267902599E+02  0.00000000000E+00 0. -1.
</event>
<event>
 5    1  0.1096978E-009  0.9118800E+02  0.7818608E-02  0.1130116E+00
         25   -1    0    0    0    0  0.00000000000E+00  0.00000000000E+00  0.99999998245E-14  0.12500000000E+03  0.12500000000E+03 0.  0.
        -11    1    3    3    0    0  0.36370560883E+02  0.22053359606E+02 -0.93038815617E+01  0.43539988301E+02  0.51100000000E-03 0. -1.
         23    2    1    0    0    0  0.16930172226E+02 -0.23080577616E+02  0.73839243688E+01  0.95438773135E+02  0.90745210803E+02 0.  0.
         11    1    3    3    0    0 -0.19440388657E+02 -0.45133937222E+02  0.16687805931E+02  0.51898784834E+02  0.51100000000E-03 0.  1.
         22    1    1    0    0    0 -0.16930172226E+02  0.23080577616E+02 -0.73839243688E+01  0.29561226865E+02  0.00000000000E+00 0.  1.
</event>
<event>
 5    1  0.1096978E-009  0.9118800E+02  0.7818608E-02  0.1130116E+00
         25   -1    0    0    0    0  0.00000000000E+00  0.00000000000E+00  0.99999998245E-14  0.12500000000E+03  0.12500000000E+03 0.  0.
        -11    1    3    3    0    0  0.43560451270E+02  0.27406203165E+02 -0.19050727729E+01  0.51499924168E+02  0.51100000000E-03 0.  1.
         23    2    1    0    0    0  0.14055098081E+00  0.26048149194E+02 -0.12339414567E+02  0.96176624368E+02  0.91755959435E+02 0.  0.
         11    1    3    3    0    0 -0.43419900290E+02 -0.13580539715E+01 -0.10434341794E+02  0.44676700199E+02  0.51100000000E-03 0. -1.
         22    1    1    0    0    0 -0.14055098081E+00 -0.26048149194E+02  0.12339414567E+02  0.28823375632E+02  0.00000000000E+00 0.  1.
</event>
<event>
 5    1  0.1096978E-009  0.9118800E+02  0.7818608E-02  0.1130116E+00
         25   -1    0    0    0    0  0.00000000000E+00  0.00000000000E+00  0.99999998245E-14  0.12500000000E+03  0.12500000000E+03 0.  0.
        -11    1    3    3    0    0 -0.51960960683E+01 -0.29989748626E+02  0.20638769644E+02  0.36774219905E+02  0.51100000000E-03 0. -1.
         23    2    1    0    0    0  0.31351689871E+02  0.68699857625E+01 -0.70045946161E+00  0.92896794466E+02  0.87173382499E+02 0.  0.
         11    1    3    3    0    0  0.36547785939E+02  0.36859734388E+02 -0.21339229105E+02  0.56122574560E+02  0.51100000000E-03 0.  1.
         22    1    1    0    0    0 -0.31351689871E+02 -0.68699857625E+01  0.70045946161E+00  0.32103205534E+02  0.00000000000E+00 0.  1.
</event>
<event>
 5    1  0.1096978E-009  0.9118800E+02  0.7818608E-02  0.1130116E+00
         25   -1    0    0    0    0  0.00000000000E+00  0.00000000000E+00  0.99999998245E-14  0.12500000000E+03  0.12500000000E+03 0.  0.
        -11    1    3    3    0    0  0.54675162618E+02 -0.39962700379E+01 -0.28896365027E+02  0.61970505028E+02  0.51100000000E-03 0. -1.
         23    2    1    0    0    0  0.28517987236E+02  0.12641229237E+00 -0.89903477379E+01  0.95098195230E+02  0.90274851468E+02 0.  0.
         11    1    3    3    0    0 -0.26157175382E+02  0.41226823303E+01  0.19906017289E+02  0.33127690202E+02  0.51100000000E-03 0.  1.
         22    1    1    0    0    0 -0.28517987236E+02 -0.12641229237E+00  0.89903477379E+01  0.29901804770E+02  0.00000000000E+00 0. -1.
</event>
<event>
 5    1  0.1096978E-009  0.9118800E+02  0.7818608E-02  0.1130116E+00
         25   -1    0    0    0    0  0.00000000000E+00  0.00000000000E+00  0.99999998245E-14  0.12500000000E+03  0.12500000000E+03 0.  0.
        -11    1    3    3    0    0  0.43299031884E+01 -0.44667437809E+02  0.10095790805E+01  0.44888164501E+02  0.51100000000E-03 0. -1.
         23    2    1    0    0    0 -0.16441953170E+01 -0.84488609048E+00 -0.27454144224E+02  0.97483691276E+02  0.93519638680E+02 0.  0.
         11    1    3    3    0    0 -0.59740985055E+01  0.43822551719E+02 -0.28463723304E+02  0.52595526775E+02  0.51100000000E-03 0.  1.
         22    1    1    0    0    0  0.16441953170E+01  0.84488609048E+00  0.27454144224E+02  0.27516308724E+02  0.00000000000E+00 0.  1.
</event>
<event>
 5    1  0.1096978E-009  0.9118800E+02  0.7818608E-02  0.1130116E+00
         25   -1    0    0    0    0  0.00000000000E+00  0.00000000000E+00  0.99999998245E-14  0.12500000000E+03  0.12500000000E+03 0.  0.
        -11    1    3    3    0    0  0.30542283994E+00  0.27449191280E+02 -0.49199772576E+02  0.56339763993E+02  0.51100000000E-03 0.  1.
         23    2    1    0    0    0 -0.16225108835E+02  0.12412627479E+01 -0.22438215326E+02  0.97282345031E+02  0.93250127388E+02 0.  0.
         11    1    3    3    0    0 -0.16530531675E+02 -0.26207928532E+02  0.26761557249E+02  0.40942581038E+02  0.51100000000E-03 0. -1.
         22    1    1    0    0    0  0.16225108835E+02 -0.12412627479E+01  0.22438215326E+02  0.27717654969E+02  0.00000000000E+00 0.  1.
</event>
<event>
 5    1  0.1096978E-009  0.9118800E+02  0.7818608E-02  0.1130116E+00
         25   -1    0    0    0    0  0.00000000000E+00  0.00000000000E+00  0.99999998245E-14  0.12500000000E+03  0.12500000000E+03 0.  0.
        -11    1    3    3    0    0 -0.36547195624E+02 -0.46802399150E+02 -0.17589624346E+02  0.61931873531E+02  0.51100000000E-03 0. -1.
         23    2    1    0    0    0 -0.19490015588E+02 -0.22183367044E+02 -0.27902142495E+01  0.95339457581E+02  0.90608302022E+02 0.  0.
         11    1    3    3    0    0  0.17057180036E+02  0.24619032106E+02  0.14799410096E+02  0.33407584050E+02  0.51100000000E-03 0.  1.
         22    1    1    0    0    0  0.19490015588E+02  0.22183367044E+02  0.27902142495E+01  0.29660542419E+02  0.00000000000E+00 0. -1.
</event>
<event>
 5    1  0.1096978E-009  0.9118800E+02  0.7818608E-02  0.1130116E+00
         25   -1    0    0    0    0  0.00000000000E+00  0.00000000000E+00  0.99999998245E-14  0.12500000000E+03  0.12500000000E+03 0.  0.
        -11    1    3    3    0    0  0.23844460959E+02  0.21546346304E+02 -0.25764274624E+02  0.41189819187E+02  0.51100000000E-03 0.  1.
         23    2    1    0    0    0 -0.25871136750E+02  0.16412844197E+01 -0.11704163644E+02  0.96557127819E+02  0.92272866840E+02 0.  0.
         11    1    3    3    0    0 -0.49715597709E+02 -0.19905061884E+02  0.14060110981E+02  0.55367308633E+02  0.51100000000E-03 0. -1.
         22    1    1    0    0    0  0.25871136750E+02 -0.16412844197E+01  0.11704163644E+02  0.28442872181E+02  0.00000000000E+00 0. -1.
</event>
<event>
 5    1  0.1096978E-009  0.9118800E+02  0.7818608E-02  0.1130116E+00
         25   -1    0    0    0    0  0.00000000000E+00  0.00000000000E+00  0.99999998245E-14  0.12500000000E+03  0.12500000000E+03 0.  0.
        -11    1    3    3    0    0  0.12428693871E+02  0.46657807229E+02  0.37382845379E+02  0.61064724151E+02  0.51100000000E-03 0. -1.
         23    2    1    0    0    0  0.10532907364E+02  0.24845413748E+02  0.97802068287E+01  0.96296530393E+02  0.91919163390E+02 0.  0.
         11    1    3    3    0    0 -0.18957865063E+01 -0.21812393481E+02 -0.27602638550E+02  0.35231806242E+02  0.51100000000E-03 0.  1.
         22    1    1    0    0    0 -0.10532907364E+02 -0.24845413748E+02 -0.97802068287E+01  0.28703469607E+02  0.00000000000E+00 0. -1.
</event>
<event>
 5    1  0.1096978E-009  0.9118800E+02  0.7818608E-02  0.1130116E+00
         25   -1    0    0    0    0  0.00000000000E+00  0.00000000000E+00  0.99999998245E-14  0.12500000000E+03  0.12500000000E+03 0.  0.
        -11    1    3    3    0    0  0.44805604698E+02 -0.16461088272E+01  0.13320797257E+02  0.46772807554E+02  0.51100000000E-03 0. -1.
         23    2    1    0    0    0  0.15960429560E+02 -0.60366538750E+01 -0.24873141139E+02  0.94836285841E+02  0.89911464565E+02 0.  0.
         11    1    3    3    0    0 -0.28845175138E+02 -0.43905450477E+01 -0.38193938397E+02  0.48063478287E+02  0.51100000000E-03 0.  1.
         22    1    1    0    0    0 -0.15960429560E+02  0.60366538750E+01  0.24873141139E+02  0.30163714159E+02  0.00000000000E+00 0. -1.
</event>
<event>
 5    1  0.1096978E-009  0.9118800E+02  0.7818608E-02  0.1130116E+00
         25   -1    0    0    0    0  0.00000000000E+00  0.00000000000E+00  0.99999998245E-14  0.12500000000E+03  0.12500000000E+03 0.  0.
        -11    1    3    3    0    0  0.32646451581E+02  0.54245419891E+01 -0.23310777488E+02  0.40479733250E+02  0.51100000000E-03 0. -1.
         23    2    1    0    0    0 -0.20166103797E+02  0.14231214467E+02 -0.18336732453E+02  0.94252073816E+02  0.89095557993E+02 0.  0.
         11    1    3    3    0    0 -0.52812555378E+02  0.88066724779E+01  0.49740450353E+01  0.53772340566E+02  0.51100000000E-03 0.  1.
         22    1    1    0    0    0  0.20166103797E+02 -0.14231214467E+02  0.18336732453E+02  0.30747926184E+02  0.00000000000E+00 0.  1.
</event>
<event>
 5    1  0.1096978E-009  0.9118800E+02  0.7818608E-02  0.1130116E+00
         25   -1    0    0    0    0  0.00000000000E+00  0.00000000000E+00  0.99999998245E-14  0.12500000000E+03  0.12500000000E+03 0.  0.
        -11    1    3    3    0    0  0.18756249773E+02  0.90944731837E+01 -0.39239338397E+02  0.44432330866E+02  0.51100000000E-03 0. -1.
         23    2    1    0    0    0  0.14684538950E+02 -0.24184305167E+02  0.85065013978E+00  0.96693818586E+02  0.92457853352E+02 0.  0.
         11    1    3    3    0    0 -0.40717108232E+01 -0.33278778351E+02  0.40089988537E+02  0.52261487720E+02  0.51100000000E-03 0.  1.
         22    1    1    0    0    0 -0.14684538950E+02  0.24184305167E+02 -0.85065013978E+00  0.28306181414E+02  0.00000000000E+00 0.  1.
</event>
<event>
 5    1  0.1096978E-009  0.9118800E+02  0.7818608E-02  0.1130116E+00
         25   -1    0    0    0    0  0.00000000000E+00  0.00000000000E+00  0.99999998245E-14  0.12500000000E+03  0.12500000000E+03 0.  0.
        -11    1    3    3    0    0 -0.11099234114E+02 -0.35726231075E+02  0.16021335715E+02  0.40696925966E+02  0.51100000000E-03 0. -1.
         23    2    1    0    0    0 -0.21015225759E+02  0.46170288177E+01 -0.19955900478E+02  0.95653882153E+02  0.91041037660E+02 0.  0.
         11    1    3    3    0    0 -0.99159916456E+01  0.40343259892E+02 -0.35977236192E+02  0.54956956187E+02  0.51100000000E-03 0.  1.
         22    1    1    0    0    0  0.21015225759E+02 -0.46170288177E+01  0.19955900478E+02  0.29346117847E+02  0.00000000000E+00 0.  1.
</event>
<event>
 5    1  0.1096978E-009  0.9118800E+02  0.7818608E-02  0.1130116E+00
         25   -1    0    0    0    0  0.00000000000E+00  0.00000000000E+00  0.99999998245E-14  0.12500000000E+03  0.12500000000E+03 0.  0.
        -11    1    3    3    0    0  0.56103107841E+02 -0.12477789377E+02  0.18816352810E+02  0.60475689914E+02  0.51100000000E-03 0. -1.
         23    2    1    0    0    0  0.21340260406E+02 -0.32496814529E+01  0.18696270697E+02  0.96442729793E+02  0.92117764020E+02 0.  0.
         11    1    3    3    0    0 -0.34762847436E+02  0.92281079237E+01 -0.12008211279E+00  0.35967039879E+02  0.51100000000E-03 0.  1.
         22    1    1    0    0    0 -0.21340260406E+02  0.32496814529E+01 -0.18696270697E+02  0.28557270207E+02  0.00000000000E+00 0. -1.
</event>
<event>
 5    1  0.1096978E-009  0.9118800E+02  0.7818608E-02  0.1130116E+00
         25   -1    0    0    0    0  0.00000000000E+00  0.00000000000E+00  0.99999998245E-14  0.12500000000E+03  0.12500000000E+03 0.  0.
        -11    1    3    3    0    0 -0.21184654628E+02  0.36973432560E+02  0.23948375236E+02  0.48880967499E+02  0.51100000000E-03 0. -1.
         23    2    1    0    0    0 -0.23958323940E+01 -0.68702898999E+01  0.27346704044E+02  0.96701888434E+02  0.92468762879E+02 0.  0.
         11    1    3    3    0    0  0.18788822234E+02 -0.43843722460E+02  0.33983288077E+01  0.47820920934E+02  0.51100000000E-03 0.  1.
         22    1    1    0    0    0  0.23958323940E+01  0.68702898999E+01 -0.27346704044E+02  0.28298111566E+02  0.00000000000E+00 0. -1.
</event>
<event>
 5    1  0.1096978E-009  0.9118800E+02  0.7818608E-02  0.1130116E+00
         25   -1    0    0    0    0  0.00000000000E+00  0.00000000000E+00  0.99999998245E-14  0.12500000000E+03  0.12500000000E+03 0.  0.
        -11    1    3    3    0    0 -0.88304519042E+01  0.10132500046E+02 -0.39034664768E+02  0.41283767898E+02  0.51100000000E-03 0. -1.
         23    2    1    0    0    0  0.43273824108E+01  0.11795682820E+02  0.19775395355E+02  0.10157073127E+03  0.98831588158E+02 0.  0.
         11    1    3    3    0    0  0.13157834315E+02  0.16631827741E+01  0.58810060123E+02  0.60286963373E+02  0.51100000000E-03 0.  1.
         22    1    1    0    0    0 -0.43273824108E+01 -0.11795682820E+02 -0.19775395355E+02  0.23429268729E+02  0.00000000000E+00 0.  1.
</event>
<event>
 5    1  0.1096978E-009  0.9118800E+02  0.7818608E-02  0.1130116E+00
         25   -1    0    0    0    0  0.00000000000E+00  0.00000000000E+00  0.99999998245E-14  0.12500000000E+03  0.12500000000E+03 0.  0.
        -11    1    3    3    0    0  0.47343536506E+01 -0.31321825343E+02  0.63013282748E+01  0.32298259792E+02  0.51100000000E-03 0. -1.
         23    2    1    0    0    0 -0.40208567190E+01  0.29852685987E+02 -0.27373609989E+01  0.94753623446E+02  0.89796469093E+02 0.  0.
         11    1    3    3    0    0 -0.87552103696E+01  0.61174511330E+02 -0.90386892736E+01  0.62455363654E+02  0.51100000000E-03 0.  1.
         22    1    1    0    0    0  0.40208567190E+01 -0.29852685987E+02  0.27373609989E+01  0.30246376554E+02  0.00000000000E+00 0.  1.
</event>
<event>
 5    1  0.1096978E-009  0.9118800E+02  0.7818608E-02  0.1130116E+00
         25   -1    0    0    0    0  0.00000000000E+00  0.00000000000E+00  0.99999998245E-14  0.12500000000E+03  0.12500000000E+03 0.  0.
        -11    1    3    3    0    0 -0.16078236763E+02 -0.49149569055E+02 -0.16521920776E+02  0.54287785939E+02  0.51100000000E-03 0. -1.
         23    2    1    0    0    0  0.39717537738E+01 -0.13869912632E+02 -0.25364809717E+02  0.95819135098E+02  0.91267649112E+02 0.  0.
         11    1    3    3    0    0  0.20049990537E+02  0.35279656424E+02 -0.88428889414E+01  0.41531349159E+02  0.51100000000E-03 0.  1.
         22    1    1    0    0    0 -0.39717537738E+01  0.13869912632E+02  0.25364809717E+02  0.29180864902E+02  0.00000000000E+00 0. -1.
</event>
<event>
 5    1  0.1096978E-009  0.9118800E+02  0.7818608E-02  0.1130116E+00
         25   -1    0    0    0    0  0.00000000000E+00  0.00000000000E+00  0.99999998245E-14  0.12500000000E+03  0.12500000000E+03 0.  0.
        -11    1    3    3    0    0 -0.21267875248E+02 -0.38317027504E+02 -0.34052139010E+02  0.55498335882E+02  0.51100000000E-03 0.  1.
         23    2    1    0    0    0  0.23824590724E+01 -0.71829087884E+01 -0.29127461271E+02  0.94905494023E+02  0.90007630264E+02 0.  0.
         11    1    3    3    0    0  0.23650334320E+02  0.31134118715E+02  0.49246777394E+01  0.39407158141E+02  0.51100000000E-03 0. -1.
         22    1    1    0    0    0 -0.23824590724E+01  0.71829087884E+01  0.29127461271E+02  0.30094505977E+02  0.00000000000E+00 0.  1.
</event>
<event>
 5    1  0.1096978E-009  0.9118800E+02  0.7818608E-02  0.1130116E+00
         25   -1    0    0    0    0  0.00000000000E+00  0.00000000000E+00  0.99999998245E-14  0.12500000000E+03  0.12500000000E+03 0.  0.
        -11    1    3    3    0    0 -0.16494886797E+02  0.68067022408E+01 -0.42760418354E+02  0.46334283894E+02  0.51100000000E-03 0. -1.
         23    2    1    0    0    0 -0.27449816054E+01 -0.27900030627E+02 -0.12895025328E+02  0.94141803177E+02  0.88940715053E+02 0.  0.
         11    1    3    3    0    0  0.13749905192E+02 -0.34706732867E+02  0.29865393026E+02  0.47807519283E+02  0.51100000000E-03 0.  1.
         22    1    1    0    0    0  0.27449816054E+01  0.27900030627E+02  0.12895025328E+02  0.30858196823E+02  0.00000000000E+00 0. -1.
</event>
<event>
 5    1  0.1096978E-009  0.9118800E+02  0.7818608E-02  0.1130116E+00
         25   -1    0    0    0    0  0.00000000000E+00  0.00000000000E+00  0.99999998245E-14  0.12500000000E+03  0.12500000000E+03 0.  0.
        -11    1    3    3    0    0  0.33831758459E+02  0.28394953344E+02 -0.30001110346E+02  0.53394080927E+02  0.51100000000E-03 0. -1.
         23    2    1    0    0    0  0.26817161179E+02 -0.65557570026E+01 -0.49772747216E+01  0.96948059831E+02  0.92800942656E+02 0.  0.
         11    1    3    3    0    0 -0.70145972801E+01 -0.34950710347E+02  0.25023835624E+02  0.43553978904E+02  0.51100000000E-03 0.  1.
         22    1    1    0    0    0 -0.26817161179E+02  0.65557570026E+01  0.49772747216E+01  0.28051940169E+02  0.00000000000E+00 0. -1.
</event>
<event>
 5    1  0.1096978E-009  0.9118800E+02  0.7818608E-02  0.1130116E+00
         25   -1    0    0    0    0  0.00000000000E+00  0.00000000000E+00  0.99999998245E-14  0.12500000000E+03  0.12500000000E+03 0.  0.
        -11    1    3    3    0    0  0.86710044711E+01 -0.28853302402E+02  0.20327690613E+02  0.36344385865E+02  0.51100000000E-03 0. -1.
         23    2    1    0    0    0 -0.12199240142E+02  0.20629393034E+02 -0.11121183091E+02  0.98578909365E+02  0.94972245111E+02 0.  0.
         11    1    3    3    0    0 -0.20870244613E+02  0.49482695435E+02 -0.31448873704E+02  0.62234523500E+02  0.51100000000E-03 0.  1.
         22    1    1    0    0    0  0.12199240142E+02 -0.20629393034E+02  0.11121183091E+02  0.26421090635E+02  0.00000000000E+00 0.  1.
</event>
<event>
 5    1  0.1096978E-009  0.9118800E+02  0.7818608E-02  0.1130116E+00
         25   -1    0    0    0    0  0.00000000000E+00  0.00000000000E+00  0.99999998245E-14  0.12500000000E+03  0.12500000000E+03 0.  0.
        -11    1    3    3    0    0 -0.25216839934E+02 -0.22413522546E+02 -0.69065616654E+01  0.34437706129E+02  0.51100000000E-03 0. -1.
         23    2    1    0    0    0  0.20977125544E+02  0.17258820816E+02 -0.11498590169E+02  0.95502131129E+02  0.90832443445E+02 0.  0.
         11    1    3    3    0    0  0.46193965478E+02  0.39672343362E+02 -0.45920285039E+01  0.61064424999E+02  0.51100000000E-03 0.  1.
         22    1    1    0    0    0 -0.20977125544E+02 -0.17258820816E+02  0.11498590169E+02  0.29497868871E+02  0.00000000000E+00 0.  1.
</event>
<event>
 5    1  0.1096978E-009  0.9118800E+02  0.7818608E-02  0.1130116E+00
         25   -1    0    0    0    0  0.00000000000E+00  0.00000000000E+00  0.99999998245E-14  0.12500000000E+03  0.12500000000E+03 0.  0.
        -11    1    3    3    0    0  0.30716788674E+02 -0.31403574394E+02 -0.16794201545E+02  0.47029254693E+02  0.51100000000E-03 0.  1.
         23    2    1    0    0    0 -0.81877179433E+01 -0.26093905497E+02  0.11402531465E+02  0.95369806734E+02  0.90650160968E+02 0.  0.
         11    1    3    3    0    0 -0.38904506617E+02  0.53096688972E+01  0.28196733010E+02  0.48340552041E+02  0.51100000000E-03 0. -1.
         22    1    1    0    0    0  0.81877179433E+01  0.26093905497E+02 -0.11402531465E+02  0.29630193266E+02  0.00000000000E+00 0. -1.
</event>
<event>
 5    1  0.1096978E-009  0.9118800E+02  0.7818608E-02  0.1130116E+00
         25   -1    0    0    0    0  0.00000000000E+00  0.00000000000E+00  0.99999998245E-14  0.12500000000E+03  0.12500000000E+03 0.  0.
        -11    1    3    3    0    0 -0.96775299142E+01 -0.18442777705E+02 -0.27499327965E+02  0.34496429866E+02  0.51100000000E-03 0. -1.
         23    2    1    0    0    0  0.23666687510E+02  0.80037817810E+01  0.15983968089E+02  0.95340939726E+02  0.90610346713E+02 0.  0.
         11    1    3    3    0    0  0.33344217424E+02  0.26446559486E+02  0.43483296053E+02  0.60844509860E+02  0.51100000000E-03 0.  1.
         22    1    1    0    0    0 -0.23666687510E+02 -0.80037817810E+01 -0.15983968089E+02  0.29659060274E+02  0.00000000000E+00 0.  1.
</event>
<event>
 5    1  0.1096978E-009  0.9118800E+02  0.7818608E-02  0.1130116E+00
         25   -1    0    0    0    0  0.00000000000E+00  0.00000000000E+00  0.99999998245E-14  0.12500000000E+03  0.12500000000E+03 0.  0.
        -11    1    3    3    0    0 -0.15190523835E+02 -0.13691512793E+02  0.23862508520E+02  0.31426562810E+02  0.51100000000E-03 0.  1.
         23    2    1    0    0    0  0.11094240896E+02  0.15315990011E+02 -0.24757037310E+02  0.93845985371E+02  0.88523987387E+02 0.  0.
         11    1    3    3    0    0  0.26284764731E+02  0.29007502804E+02 -0.48619545830E+02  0.62419422561E+02  0.51100000000E-03 0. -1.
         22    1    1    0    0    0 -0.11094240896E+02 -0.15315990011E+02  0.24757037310E+02  0.31154014629E+02  0.00000000000E+00 0. -1.
</event>
<event>
 5    1  0.1096978E-009  0.9118800E+02  0.7818608E-02  0.1130116E+00
         25   -1    0    0    0    0  0.00000000000E+00  0.00000000000E+00  0.99999998245E-14  0.12500000000E+03  0.12500000000E+03 0.  0.
        -11    1    3    3    0    0 -0.34416798599E+02 -0.61758897904E+01 -0.16114128869E+02  0.38500945312E+02  0.51100000000E-03 0.  1.
         23    2    1    0    0    0 -0.13215001213E+01  0.17280711078E+02  0.23898164581E+02  0.95478963293E+02  0.90800555192E+02 0.  0.
         11    1    3    3    0    0  0.33095298477E+02  0.23456600868E+02  0.40012293450E+02  0.56978017980E+02  0.51100000000E-03 0. -1.
         22    1    1    0    0    0  0.13215001213E+01 -0.17280711078E+02 -0.23898164581E+02  0.29521036707E+02  0.00000000000E+00 0. -1.
</event>
<event>
 5    1  0.1096978E-009  0.9118800E+02  0.7818608E-02  0.1130116E+00
         25   -1    0    0    0    0  0.00000000000E+00  0.00000000000E+00  0.99999998245E-14  0.12500000000E+03  0.12500000000E+03 0.  0.
        -11    1    3    3    0    0  0.39792129800E+02  0.95205781947E+01 -0.10859399770E+02  0.42331803255E+02  0.51100000000E-03 0.  1.
         23    2    1    0    0    0 -0.13940855539E+02  0.21440397509E+02  0.34329698473E+01  0.99196446360E+02  0.95781582728E+02 0.  0.
         11    1    3    3    0    0 -0.53732985339E+02  0.11919819314E+02  0.14292369618E+02  0.56864643105E+02  0.51100000000E-03 0. -1.
         22    1    1    0    0    0  0.13940855539E+02 -0.21440397509E+02 -0.34329698473E+01  0.25803553640E+02  0.00000000000E+00 0. -1.
</event>
<event>
 5    1  0.1096978E-009  0.9118800E+02  0.7818608E-02  0.1130116E+00
         25   -1    0    0    0    0  0.00000000000E+00  0.00000000000E+00  0.99999998245E-14  0.12500000000E+03  0.12500000000E+03 0.  0.
        -11    1    3    3    0    0 -0.46179628317E+02 -0.39164079512E+02 -0.41793062996E+01  0.60694726270E+02  0.51100000000E-03 0. -1.
         23    2    1    0    0    0 -0.26306650118E+02 -0.12444562417E+02  0.55226352572E+01  0.95378952173E+02  0.90662770988E+02 0.  0.
         11    1    3    3    0    0  0.19872978200E+02  0.26719517095E+02  0.97019415568E+01  0.34684225904E+02  0.51100000000E-03 0.  1.
         22    1    1    0    0    0  0.26306650118E+02  0.12444562417E+02 -0.55226352572E+01  0.29621047827E+02  0.00000000000E+00 0. -1.
</event>
<event>
 5    1  0.1096978E-009  0.9118800E+02  0.7818608E-02  0.1130116E+00
         25   -1    0    0    0    0  0.00000000000E+00  0.00000000000E+00  0.99999998245E-14  0.12500000000E+03  0.12500000000E+03 0.  0.
        -11    1    3    3    0    0  0.32705085465E+02 -0.15975935061E+02 -0.15489178886E+01  0.36431473526E+02  0.51100000000E-03 0.  1.
         23    2    1    0    0    0 -0.17167354649E+02  0.84860607231E+01 -0.22188209721E+02  0.95690480337E+02  0.91091273371E+02 0.  0.
         11    1    3    3    0    0 -0.49872440114E+02  0.24461995784E+02 -0.20639291832E+02  0.59259006812E+02  0.51100000000E-03 0. -1.
         22    1    1    0    0    0  0.17167354649E+02 -0.84860607231E+01  0.22188209721E+02  0.29309519663E+02  0.00000000000E+00 0. -1.
</event>
<event>
 5    1  0.1096978E-009  0.9118800E+02  0.7818608E-02  0.1130116E+00
         25   -1    0    0    0    0  0.00000000000E+00  0.00000000000E+00  0.99999998245E-14  0.12500000000E+03  0.12500000000E+03 0.  0.
        -11    1    3    3    0    0 -0.76264514539E+01 -0.36096056680E+02 -0.30203041636E+02  0.47679259579E+02  0.51100000000E-03 0.  1.
         23    2    1    0    0    0  0.22372491863E+02  0.13177106062E+00 -0.18033371750E+02  0.96264164317E+02  0.91875138526E+02 0.  0.
         11    1    3    3    0    0  0.29998943317E+02  0.36227827741E+02  0.12169669887E+02  0.48584904738E+02  0.51100000000E-03 0. -1.
         22    1    1    0    0    0 -0.22372491863E+02 -0.13177106062E+00  0.18033371750E+02  0.28735835683E+02  0.00000000000E+00 0. -1.
</event>
<event>
 5    1  0.1096978E-009  0.9118800E+02  0.7818608E-02  0.1130116E+00
         25   -1    0    0    0    0  0.00000000000E+00  0.00000000000E+00  0.99999998245E-14  0.12500000000E+03  0.12500000000E+03 0.  0.
        -11    1    3    3    0    0 -0.34765551644E+02 -0.27245754941E+02 -0.58383948773E+01  0.44554030103E+02  0.51100000000E-03 0.  1.
         23    2    1    0    0    0 -0.20805635479E+01 -0.10402973513E+02  0.28330250572E+02  0.94748492598E+02  0.89789326479E+02 0.  0.
         11    1    3    3    0    0  0.32684988096E+02  0.16842781428E+02  0.34168645449E+02  0.50194462495E+02  0.51100000000E-03 0. -1.
         22    1    1    0    0    0  0.20805635479E+01  0.10402973513E+02 -0.28330250572E+02  0.30251507402E+02  0.00000000000E+00 0. -1.
</event>
<event>
 5    1  0.1096978E-009  0.9118800E+02  0.7818608E-02  0.1130116E+00
         25   -1    0    0    0    0  0.00000000000E+00  0.00000000000E+00  0.99999998245E-14  0.12500000000E+03  0.12500000000E+03 0.  0.
        -11    1    3    3    0    0  0.37700955940E+02  0.40933909365E+02 -0.80173863951E+01  0.56224776563E+02  0.51100000000E-03 0. -1.
         23    2    1    0    0    0  0.16649840049E+01  0.27634757427E+02 -0.11967827463E+02  0.94839083502E+02  0.89915353948E+02 0.  0.
         11    1    3    3    0    0 -0.36035971935E+02 -0.13299151937E+02 -0.39504410675E+01  0.38614306940E+02  0.51100000000E-03 0.  1.
         22    1    1    0    0    0 -0.16649840049E+01 -0.27634757427E+02  0.11967827463E+02  0.30160916498E+02  0.00000000000E+00 0. -1.
</event>
<event>
 5    1  0.1096978E-009  0.9118800E+02  0.7818608E-02  0.1130116E+00
         25   -1    0    0    0    0  0.00000000000E+00  0.00000000000E+00  0.99999998245E-14  0.12500000000E+03  0.12500000000E+03 0.  0.
        -11    1    3    3    0    0  0.66102658142E+01 -0.30730250274E+01 -0.47408280928E+02  0.47965447957E+02  0.51100000000E-03 0. -1.
         23    2    1    0    0    0 -0.19513172524E+02 -0.18045267068E+02 -0.86402563073E+01  0.97052735473E+02  0.92941830562E+02 0.  0.
         11    1    3    3    0    0 -0.26123438338E+02 -0.14972242041E+02  0.38768024621E+02  0.49087287515E+02  0.51100000000E-03 0.  1.
         22    1    1    0    0    0  0.19513172524E+02  0.18045267068E+02  0.86402563073E+01  0.27947264527E+02  0.00000000000E+00 0. -1.
</event>
<event>
 5    1  0.1096978E-009  0.9118800E+02  0.7818608E-02  0.1130116E+00
         25   -1    0    0    0    0  0.00000000000E+00  0.00000000000E+00  0.99999998245E-14  0.12500000000E+03  0.12500000000E+03 0.  0.
        -11    1    3    3    0    0  0.31802124170E+02  0.68201575928E+01 -0.16953830105E+02  0.36678631474E+02  0.51100000000E-03 0.  1.
         23    2    1    0    0    0 -0.25591070162E+02  0.13055795325E+02 -0.26918447859E+01  0.96145144395E+02  0.91713063949E+02 0.  0.
         11    1    3    3    0    0 -0.57393194332E+02  0.62356377322E+01  0.14261985319E+02  0.59466512922E+02  0.51100000000E-03 0. -1.
         22    1    1    0    0    0  0.25591070162E+02 -0.13055795325E+02  0.26918447859E+01  0.28854855605E+02  0.00000000000E+00 0. -1.
</event>
<event>
 5    1  0.1096978E-009  0.9118800E+02  0.7818608E-02  0.1130116E+00
         25   -1    0    0    0    0  0.00000000000E+00  0.00000000000E+00  0.99999998245E-14  0.12500000000E+03  0.12500000000E+03 0.  0.
        -11    1    3    3    0    0  0.78969044929E+01 -0.37559736275E+02 -0.21243927337E+01  0.38439666158E+02  0.51100000000E-03 0.  1.
         23    2    1    0    0    0 -0.31867334991E+02 -0.14621318996E+02  0.14214417227E+02  0.87166685769E+02  0.78528157003E+02 0.  0.
         11    1    3    3    0    0 -0.39764239484E+02  0.22938417279E+02  0.16338809961E+02  0.48727019611E+02  0.51100000000E-03 0. -1.
         22    1    1    0    0    0  0.31867334991E+02  0.14621318996E+02 -0.14214417227E+02  0.37833314231E+02  0.00000000000E+00 0. -1.
</event>
<event>
 5    1  0.1096978E-009  0.9118800E+02  0.7818608E-02  0.1130116E+00
         25   -1    0    0    0    0  0.00000000000E+00  0.00000000000E+00  0.99999998245E-14  0.12500000000E+03  0.12500000000E+03 0.  0.
        -11    1    3    3    0    0  0.88418092198E+01  0.42272978606E+02 -0.29627854049E+02  0.52373581568E+02  0.51100000000E-03 0.  1.
         23    2    1    0    0    0  0.92777271935E+01  0.25789226142E+02  0.10416403314E+02  0.95680009126E+02  0.91076903117E+02 0.  0.
         11    1    3    3    0    0  0.43591797367E+00 -0.16483752464E+02  0.40044257363E+02  0.43306427558E+02  0.51100000000E-03 0. -1.
         22    1    1    0    0    0 -0.92777271935E+01 -0.25789226142E+02 -0.10416403314E+02  0.29319990874E+02  0.00000000000E+00 0. -1.
</event>
<event>
 5    1  0.1096978E-009  0.9118800E+02  0.7818608E-02  0.1130116E+00
         25   -1    0    0    0    0  0.00000000000E+00  0.00000000000E+00  0.99999998245E-14  0.12500000000E+03  0.12500000000E+03 0.  0.
        -11    1    3    3    0    0 -0.19377054687E+02 -0.65471537210E+01  0.31996108210E+02  0.37974812850E+02  0.51100000000E-03 0. -1.
         23    2    1    0    0    0  0.68657312484E+01  0.29327659068E+02 -0.32535386872E+01  0.94704202173E+02  0.89727646482E+02 0.  0.
         11    1    3    3    0    0  0.26242785935E+02  0.35874812789E+02 -0.35249646897E+02  0.56729389323E+02  0.51100000000E-03 0.  1.
         22    1    1    0    0    0 -0.68657312484E+01 -0.29327659068E+02  0.32535386872E+01  0.30295797827E+02  0.00000000000E+00 0.  1.
</event>
<event>
 5    1  0.1096978E-009  0.9118800E+02  0.7818608E-02  0.1130116E+00
         25   -1    0    0    0    0  0.00000000000E+00  0.00000000000E+00  0.99999998245E-14  0.12500000000E+03  0.12500000000E+03 0.  0.
        -11    1    3    3    0    0  0.17598733452E+02  0.33353916245E+02  0.34077412831E+02  0.50827838962E+02  0.51100000000E-03 0. -1.
         23    2    1    0    0    0  0.28923977068E+02  0.21346303444E+01  0.38342869089E+01  0.95745002953E+02  0.91166061329E+02 0.  0.
         11    1    3    3    0    0  0.11325243616E+02 -0.31219285901E+02 -0.30243125922E+02  0.44917163991E+02  0.51100000000E-03 0.  1.
         22    1    1    0    0    0 -0.28923977068E+02 -0.21346303444E+01 -0.38342869089E+01  0.29254997047E+02  0.00000000000E+00 0. -1.
</event>
<event>
 5    1  0.1096978E-009  0.9118800E+02  0.7818608E-02  0.1130116E+00
         25   -1    0    0    0    0  0.00000000000E+00  0.00000000000E+00  0.99999998245E-14  0.12500000000E+03  0.12500000000E+03 0.  0.
        -11    1    3    3    0    0  0.33805147218E+02 -0.47381149377E+02 -0.18271567104E+01  0.58233150324E+02  0.51100000000E-03 0. -1.
         23    2    1    0    0    0  0.18110622468E+02 -0.18099054522E+02 -0.16487260458E+02  0.94546754226E+02  0.89508036268E+02 0.  0.
         11    1    3    3    0    0 -0.15694524750E+02  0.29282094855E+02 -0.14660103747E+02  0.36313603902E+02  0.51100000000E-03 0.  1.
         22    1    1    0    0    0 -0.18110622468E+02  0.18099054522E+02  0.16487260458E+02  0.30453245774E+02  0.00000000000E+00 0. -1.
</event>
<event>
 5    1  0.1096978E-009  0.9118800E+02  0.7818608E-02  0.1130116E+00
         25   -1    0    0    0    0  0.00000000000E+00  0.00000000000E+00  0.99999998245E-14  0.12500000000E+03  0.12500000000E+03 0.  0.
        -11    1    3    3    0    0  0.11781211254E+02  0.27390872094E+02  0.24864658419E+02  0.38824065362E+02  0.51100000000E-03 0. -1.
         23    2    1    0    0    0 -0.26313284585E+02 -0.10900787016E+02  0.93840079071E+01  0.95012073969E+02  0.90155523914E+02 0.  0.
         11    1    3    3    0    0 -0.38094495839E+02 -0.38291659111E+02 -0.15480650512E+02  0.56188008607E+02  0.51100000000E-03 0.  1.
         22    1    1    0    0    0  0.26313284585E+02  0.10900787016E+02 -0.93840079071E+01  0.29987926031E+02  0.00000000000E+00 0.  1.
</event>
<event>
 5    1  0.1096978E-009  0.9118800E+02  0.7818608E-02  0.1130116E+00
         25   -1    0    0    0    0  0.00000000000E+00  0.00000000000E+00  0.99999998245E-14  0.12500000000E+03  0.12500000000E+03 0.  0.
        -11    1    3    3    0    0 -0.28721558196E+02  0.94294059779E+01 -0.28984240072E+02  0.41879920906E+02  0.51100000000E-03 0. -1.
         23    2    1    0    0    0  0.13051722337E+02 -0.21406276723E+02 -0.15501071306E+02  0.95523579751E+02  0.90861955392E+02 0.  0.
         11    1    3    3    0    0  0.41773280532E+02 -0.30835682701E+02  0.13483168766E+02  0.53643658845E+02  0.51100000000E-03 0.  1.
         22    1    1    0    0    0 -0.13051722337E+02  0.21406276723E+02  0.15501071306E+02  0.29476420249E+02  0.00000000000E+00 0.  1.
</event>
<event>
 5    1  0.1096978E-009  0.9118800E+02  0.7818608E-02  0.1130116E+00
         25   -1    0    0    0    0  0.00000000000E+00  0.00000000000E+00  0.99999998245E-14  0.12500000000E+03  0.12500000000E+03 0.  0.
        -11    1    3    3    0    0  0.15291050171E+02 -0.15096501334E+02  0.57169751244E+02  0.61074553010E+02  0.51100000000E-03 0.  1.
         23    2    1    0    0    0  0.91794088095E+01  0.18683524325E+01  0.29028636819E+02  0.94497310897E+02  0.89438960886E+02 0.  0.
         11    1    3    3    0    0 -0.61116413612E+01  0.16964853766E+02 -0.28141114425E+02  0.33422757887E+02  0.51100000000E-03 0. -1.
         22    1    1    0    0    0 -0.91794088095E+01 -0.18683524325E+01 -0.29028636819E+02  0.30502689103E+02  0.00000000000E+00 0.  1.
</event>
<event>
 5    1  0.1096978E-009  0.9118800E+02  0.7818608E-02  0.1130116E+00
         25   -1    0    0    0    0  0.00000000000E+00  0.00000000000E+00  0.99999998245E-14  0.12500000000E+03  0.12500000000E+03 0.  0.
        -11    1    3    3    0    0 -0.44117274373E+02 -0.27663245138E+02  0.19868764169E+02  0.55734700318E+02  0.51100000000E-03 0. -1.
         23    2    1    0    0    0 -0.22277087227E+02  0.68947376029E+01  0.15830799713E+02  0.96814538473E+02  0.92620918902E+02 0.  0.
         11    1    3    3    0    0  0.21840187146E+02  0.34557982741E+02 -0.40379644560E+01  0.41079838155E+02  0.51100000000E-03 0.  1.
         22    1    1    0    0    0  0.22277087227E+02 -0.68947376029E+01 -0.15830799713E+02  0.28185461527E+02  0.00000000000E+00 0. -1.
</event>
<event>
 5    1  0.1096978E-009  0.9118800E+02  0.7818608E-02  0.1130116E+00
         25   -1    0    0    0    0  0.00000000000E+00  0.00000000000E+00  0.99999998245E-14  0.12500000000E+03  0.12500000000E+03 0.  0.
        -11    1    3    3    0    0 -0.25631740767E+02 -0.21833960264E+02  0.22719854532E+02  0.40618957960E+02  0.51100000000E-03 0. -1.
         23    2    1    0    0    0  0.50695289899E+01 -0.18785663079E+02 -0.22432045556E+02  0.95304917422E+02  0.90560639107E+02 0.  0.
         11    1    3    3    0    0  0.30701269757E+02  0.30482971847E+01 -0.45151900088E+02  0.54685959462E+02  0.51100000000E-03 0.  1.
         22    1    1    0    0    0 -0.50695289899E+01  0.18785663079E+02  0.22432045556E+02  0.29695082578E+02  0.00000000000E+00 0.  1.
</event>
<event>
 5    1  0.1096978E-009  0.9118800E+02  0.7818608E-02  0.1130116E+00
         25   -1    0    0    0    0  0.00000000000E+00  0.00000000000E+00  0.99999998245E-14  0.12500000000E+03  0.12500000000E+03 0.  0.
        -11    1    3    3    0    0  0.25462097957E+02 -0.28902860077E+02 -0.45552095535E+02  0.59654732929E+02  0.51100000000E-03 0. -1.
         23    2    1    0    0    0  0.36280469269E+01 -0.21918665142E+02 -0.13698930610E+02  0.98899208710E+02  0.95392883264E+02 0.  0.
         11    1    3    3    0    0 -0.21834051030E+02  0.69841949349E+01  0.31853164925E+02  0.39244475781E+02  0.51100000000E-03 0.  1.
         22    1    1    0    0    0 -0.36280469269E+01  0.21918665142E+02  0.13698930610E+02  0.26100791290E+02  0.00000000000E+00 0. -1.
</event>
<event>
 5    1  0.1096978E-009  0.9118800E+02  0.7818608E-02  0.1130116E+00
         25   -1    0    0    0    0  0.00000000000E+00  0.00000000000E+00  0.99999998245E-14  0.12500000000E+03  0.12500000000E+03 0.  0.
        -11    1    3    3    0    0 -0.50731144540E+02  0.14906913045E+02  0.15832193940E+01  0.52899637681E+02  0.51100000000E-03 0.  1.
         23    2    1    0    0    0 -0.11275019368E+02  0.22007619686E+02  0.16050147488E+02  0.95520030183E+02  0.90857072074E+02 0.  0.
         11    1    3    3    0    0  0.39456125172E+02  0.71007066411E+01  0.14466928094E+02  0.42620392503E+02  0.51100000000E-03 0. -1.
         22    1    1    0    0    0  0.11275019368E+02 -0.22007619686E+02 -0.16050147488E+02  0.29479969817E+02  0.00000000000E+00 0. -1.
</event>
<event>
 5    1  0.1096978E-009  0.9118800E+02  0.7818608E-02  0.1130116E+00
         25   -1    0    0    0    0  0.00000000000E+00  0.00000000000E+00  0.99999998245E-14  0.12500000000E+03  0.12500000000E+03 0.  0.
        -11    1    3    3    0    0 -0.24774544718E+02  0.39406115107E+02 -0.53390948440E+01  0.46852170792E+02  0.51100000000E-03 0.  1.
         23    2    1    0    0    0  0.20678769663E+02  0.17912165386E+02 -0.53108611435E+01  0.97131336062E+02  0.93047482586E+02 0.  0.
         11    1    3    3    0    0  0.45453314382E+02 -0.21493949722E+02  0.28233700477E-01  0.50279165271E+02  0.51100000000E-03 0. -1.
         22    1    1    0    0    0 -0.20678769663E+02 -0.17912165386E+02  0.53108611435E+01  0.27868663938E+02  0.00000000000E+00 0. -1.
</event>
<event>
 5    1  0.1096978E-009  0.9118800E+02  0.7818608E-02  0.1130116E+00
         25   -1    0    0    0    0  0.00000000000E+00  0.00000000000E+00  0.99999998245E-14  0.12500000000E+03  0.12500000000E+03 0.  0.
        -11    1    3    3    0    0 -0.90029383213E+01  0.26964297064E+02  0.17551955487E+02  0.33409539899E+02  0.51100000000E-03 0. -1.
         23    2    1    0    0    0  0.23327094430E+02 -0.14529005878E+02 -0.13382557194E+02  0.94433054071E+02  0.89349110336E+02 0.  0.
         11    1    3    3    0    0  0.32330032752E+02 -0.41493302943E+02 -0.30934512681E+02  0.61023514172E+02  0.51100000000E-03 0.  1.
         22    1    1    0    0    0 -0.23327094430E+02  0.14529005878E+02  0.13382557194E+02  0.30566945929E+02  0.00000000000E+00 0.  1.
</event>
<event>
 5    1  0.1096978E-009  0.9118800E+02  0.7818608E-02  0.1130116E+00
         25   -1    0    0    0    0  0.00000000000E+00  0.00000000000E+00  0.99999998245E-14  0.12500000000E+03  0.12500000000E+03 0.  0.
        -11    1    3    3    0    0 -0.50891993699E+00  0.44006597257E+02  0.32945617315E+02  0.54975024349E+02  0.51100000000E-03 0.  1.
         23    2    1    0    0    0  0.11087910718E+02  0.57284600226E+01  0.26794513037E+02  0.95441533409E+02  0.90749012955E+02 0.  0.
         11    1    3    3    0    0  0.11596830655E+02 -0.38278137235E+02 -0.61511042788E+01  0.40466509060E+02  0.51100000000E-03 0. -1.
         22    1    1    0    0    0 -0.11087910718E+02 -0.57284600226E+01 -0.26794513037E+02  0.29558466591E+02  0.00000000000E+00 0.  1.
</event>
<event>
 5    1  0.1096978E-009  0.9118800E+02  0.7818608E-02  0.1130116E+00
         25   -1    0    0    0    0  0.00000000000E+00  0.00000000000E+00  0.99999998245E-14  0.12500000000E+03  0.12500000000E+03 0.  0.
        -11    1    3    3    0    0  0.38229574887E+02 -0.27414216017E+02 -0.32053560846E+02  0.56925129767E+02  0.51100000000E-03 0.  1.
         23    2    1    0    0    0  0.15386306000E+01 -0.21857322124E+02 -0.18129570616E+02  0.96560744643E+02  0.92277766340E+02 0.  0.
         11    1    3    3    0    0 -0.36690944287E+02  0.55568938931E+01  0.13923990230E+02  0.39635614876E+02  0.51100000000E-03 0. -1.
         22    1    1    0    0    0 -0.15386306000E+01  0.21857322124E+02  0.18129570616E+02  0.28439255357E+02  0.00000000000E+00 0.  1.
</event>
<event>
 5    1  0.1096978E-009  0.9118800E+02  0.7818608E-02  0.1130116E+00
         25   -1    0    0    0    0  0.00000000000E+00  0.00000000000E+00  0.99999998245E-14  0.12500000000E+03  0.12500000000E+03 0.  0.
        -11    1    3    3    0    0  0.41407664436E+02 -0.57670323834E+01  0.33044813389E+02  0.53289896122E+02  0.51100000000E-03 0.  1.
         23    2    1    0    0    0  0.15046184574E+00  0.61778057552E+01  0.27754309200E+02  0.96566048430E+02  0.92284950601E+02 0.  0.
         11    1    3    3    0    0 -0.41257202590E+02  0.11944838139E+02 -0.52905041889E+01  0.43276152307E+02  0.51100000000E-03 0. -1.
         22    1    1    0    0    0 -0.15046184574E+00 -0.61778057552E+01 -0.27754309200E+02  0.28433951570E+02  0.00000000000E+00 0.  1.
</event>
<event>
 5    1  0.1096978E-009  0.9118800E+02  0.7818608E-02  0.1130116E+00
         25   -1    0    0    0    0  0.00000000000E+00  0.00000000000E+00  0.99999998245E-14  0.12500000000E+03  0.12500000000E+03 0.  0.
        -11    1    3    3    0    0  0.34372025327E+01 -0.83904353322E-01 -0.60141268646E+02  0.60239468755E+02  0.51100000000E-03 0.  1.
         23    2    1    0    0    0  0.87652535905E+00  0.11721203068E+02 -0.25641317102E+02  0.96793049778E+02  0.92591913494E+02 0.  0.
         11    1    3    3    0    0 -0.25606771736E+01  0.11805107422E+02  0.34499951544E+02  0.36553581023E+02  0.51100000000E-03 0. -1.
         22    1    1    0    0    0 -0.87652535905E+00 -0.11721203068E+02  0.25641317102E+02  0.28206950222E+02  0.00000000000E+00 0.  1.
</event>
<event>
 5    1  0.1096978E-009  0.9118800E+02  0.7818608E-02  0.1130116E+00
         25   -1    0    0    0    0  0.00000000000E+00  0.00000000000E+00  0.99999998245E-14  0.12500000000E+03  0.12500000000E+03 0.  0.
        -11    1    3    3    0    0  0.16670122999E+02  0.38144864341E+02  0.33892633099E+02  0.53680855573E+02  0.51100000000E-03 0.  1.
         23    2    1    0    0    0  0.17231597636E+02  0.24147751955E+02 -0.49065796082E+01  0.94931471519E+02  0.90043699833E+02 0.  0.
         11    1    3    3    0    0  0.56147463707E+00 -0.13997112386E+02 -0.38799212707E+02  0.41250615945E+02  0.51100000000E-03 0. -1.
         22    1    1    0    0    0 -0.17231597636E+02 -0.24147751955E+02  0.49065796082E+01  0.30068528481E+02  0.00000000000E+00 0.  1.
</event>
<event>
 5    1  0.1096978E-009  0.9118800E+02  0.7818608E-02  0.1130116E+00
         25   -1    0    0    0    0  0.00000000000E+00  0.00000000000E+00  0.99999998245E-14  0.12500000000E+03  0.12500000000E+03 0.  0.
        -11    1    3    3    0    0  0.45815428368E+02 -0.14243201885E+02 -0.26634624510E+02  0.54875545551E+02  0.51100000000E-03 0. -1.
         23    2    1    0    0    0  0.26189259710E+02  0.13094732181E+02 -0.39648107789E+01  0.95452257962E+02  0.90763784025E+02 0.  0.
         11    1    3    3    0    0 -0.19626168659E+02  0.27337934066E+02  0.22669813731E+02  0.40576712411E+02  0.51100000000E-03 0.  1.
         22    1    1    0    0    0 -0.26189259710E+02 -0.13094732181E+02  0.39648107789E+01  0.29547742038E+02  0.00000000000E+00 0. -1.
</event>
<event>
 5    1  0.1096978E-009  0.9118800E+02  0.7818608E-02  0.1130116E+00
         25   -1    0    0    0    0  0.00000000000E+00  0.00000000000E+00  0.99999998245E-14  0.12500000000E+03  0.12500000000E+03 0.  0.
        -11    1    3    3    0    0  0.20939396264E+01  0.38583220373E+02 -0.31357107809E+01  0.38767024129E+02  0.51100000000E-03 0. -1.
         23    2    1    0    0    0  0.24505743384E+02 -0.12354003700E+02  0.97263578452E+01  0.95883769077E+02  0.91356128800E+02 0.  0.
         11    1    3    3    0    0  0.22411803758E+02 -0.50937224072E+02  0.12862068626E+02  0.57116744948E+02  0.51100000000E-03 0.  1.
         22    1    1    0    0    0 -0.24505743384E+02  0.12354003700E+02 -0.97263578452E+01  0.29116230923E+02  0.00000000000E+00 0.  1.
</event>
<event>
 5    1  0.1096978E-009  0.9118800E+02  0.7818608E-02  0.1130116E+00
         25   -1    0    0    0    0  0.00000000000E+00  0.00000000000E+00  0.99999998245E-14  0.12500000000E+03  0.12500000000E+03 0.  0.
        -11    1    3    3    0    0  0.74249349574E+01 -0.33661854575E+02 -0.41490466456E+02  0.53941717803E+02  0.51100000000E-03 0.  1.
         23    2    1    0    0    0  0.89153121838E+01 -0.29708897690E+02 -0.17214297908E+01  0.93934509278E+02  0.88648899144E+02 0.  0.
         11    1    3    3    0    0  0.14903772264E+01  0.39529568846E+01  0.39769036665E+02  0.39992791475E+02  0.51100000000E-03 0. -1.
         22    1    1    0    0    0 -0.89153121838E+01  0.29708897690E+02  0.17214297908E+01  0.31065490722E+02  0.00000000000E+00 0. -1.
</event>
<event>
 5    1  0.1096978E-009  0.9118800E+02  0.7818608E-02  0.1130116E+00
         25   -1    0    0    0    0  0.00000000000E+00  0.00000000000E+00  0.99999998245E-14  0.12500000000E+03  0.12500000000E+03 0.  0.
        -11    1    3    3    0    0 -0.14237658760E+02 -0.19058022408E+02 -0.30984717461E+02  0.39063689808E+02  0.51100000000E-03 0.  1.
         23    2    1    0    0    0 -0.58359467363E+01 -0.11092867632E+02  0.25427146581E+02  0.96651282747E+02  0.92400328391E+02 0.  0.
         11    1    3    3    0    0  0.84017120234E+01  0.79651547763E+01  0.56411864042E+02  0.57587592939E+02  0.51100000000E-03 0. -1.
         22    1    1    0    0    0  0.58359467363E+01  0.11092867632E+02 -0.25427146581E+02  0.28348717253E+02  0.00000000000E+00 0. -1.
</event>
<event>
 5    1  0.1096978E-009  0.9118800E+02  0.7818608E-02  0.1130116E+00
         25   -1    0    0    0    0  0.00000000000E+00  0.00000000000E+00  0.99999998245E-14  0.12500000000E+03  0.12500000000E+03 0.  0.
        -11    1    3    3    0    0  0.35430409552E+02 -0.41145399654E+02 -0.60354609778E+01  0.54632267235E+02  0.51100000000E-03 0.  1.
         23    2    1    0    0    0  0.13260127003E+02 -0.13817718904E+02 -0.24123735193E+02  0.94198783733E+02  0.89020761249E+02 0.  0.
         11    1    3    3    0    0 -0.22170282549E+02  0.27327680751E+02 -0.18088274215E+02  0.39566516499E+02  0.51100000000E-03 0. -1.
         22    1    1    0    0    0 -0.13260127003E+02  0.13817718904E+02  0.24123735193E+02  0.30801216267E+02  0.00000000000E+00 0.  1.
</event>
<event>
 5    1  0.1096978E-009  0.9118800E+02  0.7818608E-02  0.1130116E+00
         25   -1    0    0    0    0  0.00000000000E+00  0.00000000000E+00  0.99999998245E-14  0.12500000000E+03  0.12500000000E+03 0.  0.
        -11    1    3    3    0    0 -0.13467458632E+02  0.43762321798E+02  0.26791548181E+02  0.53049979316E+02  0.51100000000E-03 0.  1.
         23    2    1    0    0    0 -0.27040533596E+02  0.98540812985E+01  0.44155875030E+01  0.95883152842E+02  0.91355285619E+02 0.  0.
         11    1    3    3    0    0 -0.13573074964E+02 -0.33908240500E+02 -0.22375960678E+02  0.42833173526E+02  0.51100000000E-03 0. -1.
         22    1    1    0    0    0  0.27040533596E+02 -0.98540812985E+01 -0.44155875030E+01  0.29116847158E+02  0.00000000000E+00 0.  1.
</event>
<event>
 5    1  0.1096978E-009  0.9118800E+02  0.7818608E-02  0.1130116E+00
         25   -1    0    0    0    0  0.00000000000E+00  0.00000000000E+00  0.99999998245E-14  0.12500000000E+03  0.12500000000E+03 0.  0.
        -11    1    3    3    0    0 -0.29238836961E+01  0.38334022010E+02  0.25165232307E+02  0.45949268293E+02  0.51100000000E-03 0.  1.
         23    2    1    0    0    0  0.16503902374E+02 -0.71109406422E+01  0.23520357135E+02  0.95400144086E+02  0.90691984329E+02 0.  0.
         11    1    3    3    0    0  0.19427786070E+02 -0.45444962653E+02 -0.16448751723E+01  0.49450875793E+02  0.51100000000E-03 0. -1.
         22    1    1    0    0    0 -0.16503902374E+02  0.71109406422E+01 -0.23520357135E+02  0.29599855914E+02  0.00000000000E+00 0. -1.
</event>
<event>
 5    1  0.1096978E-009  0.9118800E+02  0.7818608E-02  0.1130116E+00
         25   -1    0    0    0    0  0.00000000000E+00  0.00000000000E+00  0.99999998245E-14  0.12500000000E+03  0.12500000000E+03 0.  0.
        -11    1    3    3    0    0 -0.95605445433E+01  0.50348635191E+01 -0.39322707749E+02  0.40780255119E+02  0.51100000000E-03 0.  1.
         23    2    1    0    0    0  0.20505204909E+02  0.15981182658E+02  0.79061609598E+01  0.97827053737E+02  0.93977462374E+02 0.  0.
         11    1    3    3    0    0  0.30065749452E+02  0.10946319139E+02  0.47228868709E+02  0.57046798618E+02  0.51100000000E-03 0. -1.
         22    1    1    0    0    0 -0.20505204909E+02 -0.15981182658E+02 -0.79061609598E+01  0.27172946263E+02  0.00000000000E+00 0. -1.
</event>
<event>
 5    1  0.1096978E-009  0.9118800E+02  0.7818608E-02  0.1130116E+00
         25   -1    0    0    0    0  0.00000000000E+00  0.00000000000E+00  0.99999998245E-14  0.12500000000E+03  0.12500000000E+03 0.  0.
        -11    1    3    3    0    0  0.12042081937E+02 -0.98689070074E+01 -0.38738351210E+02  0.41750052906E+02  0.51100000000E-03 0.  1.
         23    2    1    0    0    0 -0.16703515970E+02 -0.10328007289E+02  0.13355494982E+02  0.10125038050E+03  0.98425581656E+02 0.  0.
         11    1    3    3    0    0 -0.28745597907E+02 -0.45910028150E+00  0.52093846192E+02  0.59500327591E+02  0.51100000000E-03 0. -1.
         22    1    1    0    0    0  0.16703515970E+02  0.10328007289E+02 -0.13355494982E+02  0.23749619503E+02  0.00000000000E+00 0. -1.
</event>
<event>
 5    1  0.1096978E-009  0.9118800E+02  0.7818608E-02  0.1130116E+00
         25   -1    0    0    0    0  0.00000000000E+00  0.00000000000E+00  0.99999998245E-14  0.12500000000E+03  0.12500000000E+03 0.  0.
        -11    1    3    3    0    0  0.44210229387E+02  0.83482805057E+01  0.39875475127E+01  0.45167894630E+02  0.51100000000E-03 0.  1.
         23    2    1    0    0    0 -0.47878344202E+01  0.21295456096E+02  0.16816440427E+02  0.97446189421E+02  0.93469499599E+02 0.  0.
         11    1    3    3    0    0 -0.48998063807E+02  0.12947175590E+02  0.12828892915E+02  0.52278294791E+02  0.51100000000E-03 0. -1.
         22    1    1    0    0    0  0.47878344202E+01 -0.21295456096E+02 -0.16816440427E+02  0.27553810579E+02  0.00000000000E+00 0. -1.
</event>
<event>
 5    1  0.1096978E-009  0.9118800E+02  0.7818608E-02  0.1130116E+00
         25   -1    0    0    0    0  0.00000000000E+00  0.00000000000E+00  0.99999998245E-14  0.12500000000E+03  0.12500000000E+03 0.  0.
        -11    1    3    3    0    0  0.71658215392E+01  0.15383491710E+02  0.31898300930E+02  0.36131736991E+02  0.51100000000E-03 0.  1.
         23    2    1    0    0    0  0.18837598240E+02 -0.59178159536E+01 -0.22113659243E+02  0.95353928115E+02  0.90628262858E+02 0.  0.
         11    1    3    3    0    0  0.11671776700E+02 -0.21301307664E+02 -0.54011960173E+02  0.59222191124E+02  0.51100000000E-03 0. -1.
         22    1    1    0    0    0 -0.18837598240E+02  0.59178159536E+01  0.22113659243E+02  0.29646071885E+02  0.00000000000E+00 0. -1.
</event>
<event>
 5    1  0.1096978E-009  0.9118800E+02  0.7818608E-02  0.1130116E+00
         25   -1    0    0    0    0  0.00000000000E+00  0.00000000000E+00  0.99999998245E-14  0.12500000000E+03  0.12500000000E+03 0.  0.
        -11    1    3    3    0    0 -0.76906181533E+01 -0.31736053027E+02  0.20856420111E+02  0.38746779601E+02  0.51100000000E-03 0.  1.
         23    2    1    0    0    0 -0.22990671132E+02  0.15471404018E+02 -0.80063817437E+01  0.96154940631E+02  0.91726414722E+02 0.  0.
         11    1    3    3    0    0 -0.15300052978E+02  0.47207457044E+02 -0.28862801855E+02  0.57408161031E+02  0.51100000000E-03 0. -1.
         22    1    1    0    0    0  0.22990671132E+02 -0.15471404018E+02  0.80063817437E+01  0.28845059369E+02  0.00000000000E+00 0. -1.
</event>
<event>
 5    1  0.1096978E-009  0.9118800E+02  0.7818608E-02  0.1130116E+00
         25   -1    0    0    0    0  0.00000000000E+00  0.00000000000E+00  0.99999998245E-14  0.12500000000E+03  0.12500000000E+03 0.  0.
        -11    1    3    3    0    0 -0.35978885839E+02  0.45572980855E+02  0.44339637027E+00  0.58065251320E+02  0.51100000000E-03 0. -1.
         23    2    1    0    0    0 -0.41763962694E+01  0.30178315774E+02 -0.59142949161E+01  0.93965311132E+02  0.88692320880E+02 0.  0.
         11    1    3    3    0    0  0.31802489570E+02 -0.15394665080E+02 -0.63576912864E+01  0.35900059812E+02  0.51100000000E-03 0.  1.
         22    1    1    0    0    0  0.41763962694E+01 -0.30178315774E+02  0.59142949161E+01  0.31034688868E+02  0.00000000000E+00 0. -1.
</event>
<event>
 5    1  0.1096978E-009  0.9118800E+02  0.7818608E-02  0.1130116E+00
         25   -1    0    0    0    0  0.00000000000E+00  0.00000000000E+00  0.99999998245E-14  0.12500000000E+03  0.12500000000E+03 0.  0.
        -11    1    3    3    0    0 -0.85393366723E+01  0.27847686100E+02 -0.16469552957E+00  0.29128010863E+02  0.51100000000E-03 0.  1.
         23    2    1    0    0    0 -0.84044731184E+01 -0.29597618251E+02  0.17971202878E+02  0.89368296316E+02  0.81957757894E+02 0.  0.
         11    1    3    3    0    0  0.13486355397E+00 -0.57445304351E+02  0.18135898408E+02  0.60240285453E+02  0.51100000000E-03 0. -1.
         22    1    1    0    0    0  0.84044731184E+01  0.29597618251E+02 -0.17971202878E+02  0.35631703684E+02  0.00000000000E+00 0. -1.
</event>
<event>
 5    1  0.1096978E-009  0.9118800E+02  0.7818608E-02  0.1130116E+00
         25   -1    0    0    0    0  0.00000000000E+00  0.00000000000E+00  0.99999998245E-14  0.12500000000E+03  0.12500000000E+03 0.  0.
        -11    1    3    3    0    0 -0.13303286929E+02 -0.33635954394E+02  0.48723858287E+01  0.36497876857E+02  0.51100000000E-03 0.  1.
         23    2    1    0    0    0 -0.45221261415E+01  0.25297463287E+02  0.12239632370E+02  0.96535638526E+02  0.92243751178E+02 0.  0.
         11    1    3    3    0    0  0.87811607876E+01  0.58933417681E+02  0.73672465417E+01  0.60037761669E+02  0.51100000000E-03 0. -1.
         22    1    1    0    0    0  0.45221261415E+01 -0.25297463287E+02 -0.12239632370E+02  0.28464361474E+02  0.00000000000E+00 0. -1.
</event>
<event>
 5    1  0.1096978E-009  0.9118800E+02  0.7818608E-02  0.1130116E+00
         25   -1    0    0    0    0  0.00000000000E+00  0.00000000000E+00  0.99999998245E-14  0.12500000000E+03  0.12500000000E+03 0.  0.
        -11    1    3    3    0    0  0.19916709757E+02 -0.44925907683E+02  0.28484703111E+02  0.56801327627E+02  0.51100000000E-03 0.  1.
         23    2    1    0    0    0  0.19541228407E+02 -0.62809673329E+01  0.58616087017E+00  0.10446579091E+03  0.10242776835E+03 0.  0.
         11    1    3    3    0    0 -0.37548135011E+00  0.38644940350E+02 -0.27898542241E+02  0.47664463285E+02  0.51100000000E-03 0. -1.
         22    1    1    0    0    0 -0.19541228407E+02  0.62809673329E+01 -0.58616087017E+00  0.20534209087E+02  0.00000000000E+00 0.  1.
</event>
<event>
 5    1  0.1096978E-009  0.9118800E+02  0.7818608E-02  0.1130116E+00
         25   -1    0    0    0    0  0.00000000000E+00  0.00000000000E+00  0.99999998245E-14  0.12500000000E+03  0.12500000000E+03 0.  0.
        -11    1    3    3    0    0  0.98480101055E+01 -0.29764352872E+02 -0.13617059963E+02  0.34180759606E+02  0.51100000000E-03 0.  1.
         23    2    1    0    0    0 -0.10398306887E+01  0.28998459113E+02  0.18855603913E+01  0.95921705401E+02  0.91408021258E+02 0.  0.
         11    1    3    3    0    0 -0.10887840794E+02  0.58762811985E+02  0.15502620355E+02  0.61740945795E+02  0.51100000000E-03 0. -1.
         22    1    1    0    0    0  0.10398306887E+01 -0.28998459113E+02 -0.18855603913E+01  0.29078294599E+02  0.00000000000E+00 0. -1.
</event>
<event>
 5    1  0.1096978E-009  0.9118800E+02  0.7818608E-02  0.1130116E+00
         25   -1    0    0    0    0  0.00000000000E+00  0.00000000000E+00  0.99999998245E-14  0.12500000000E+03  0.12500000000E+03 0.  0.
        -11    1    3    3    0    0  0.21265691520E+02 -0.29373738395E+02  0.50706064068E+02  0.62339001249E+02  0.51100000000E-03 0.  1.
         23    2    1    0    0    0  0.10427287683E+02 -0.16256436169E+02  0.21853259406E+02  0.95835552603E+02  0.91290131726E+02 0.  0.
         11    1    3    3    0    0 -0.10838403838E+02  0.13117302226E+02 -0.28852804663E+02  0.33496551354E+02  0.51100000000E-03 0. -1.
         22    1    1    0    0    0 -0.10427287683E+02  0.16256436169E+02 -0.21853259406E+02  0.29164447397E+02  0.00000000000E+00 0.  1.
</event>
<event>
 5    1  0.1096978E-009  0.9118800E+02  0.7818608E-02  0.1130116E+00
         25   -1    0    0    0    0  0.00000000000E+00  0.00000000000E+00  0.99999998245E-14  0.12500000000E+03  0.12500000000E+03 0.  0.
        -11    1    3    3    0    0  0.10550596810E+02  0.18679589506E+02  0.56683187308E+02  0.60607143810E+02  0.51100000000E-03 0.  1.
         23    2    1    0    0    0  0.14082952058E+02  0.14082876307E+02  0.23944012179E+02  0.93855615868E+02  0.88537585052E+02 0.  0.
         11    1    3    3    0    0  0.35323552480E+01 -0.45967131989E+01 -0.32739175128E+02  0.33248472058E+02  0.51100000000E-03 0. -1.
         22    1    1    0    0    0 -0.14082952058E+02 -0.14082876307E+02 -0.23944012179E+02  0.31144384132E+02  0.00000000000E+00 0.  1.
</event>
<event>
 5    1  0.1096978E-009  0.9118800E+02  0.7818608E-02  0.1130116E+00
         25   -1    0    0    0    0  0.00000000000E+00  0.00000000000E+00  0.99999998245E-14  0.12500000000E+03  0.12500000000E+03 0.  0.
        -11    1    3    3    0    0 -0.72009984359E+01 -0.29172300770E+02 -0.83546975149E+01  0.31187793791E+02  0.51100000000E-03 0.  1.
         23    2    1    0    0    0  0.65126942953E+01  0.30935902668E+02 -0.55360131485E+01  0.92904942710E+02  0.87185065679E+02 0.  0.
         11    1    3    3    0    0  0.13713692731E+02  0.60108203438E+02  0.28186843664E+01  0.61717148919E+02  0.51100000000E-03 0. -1.
         22    1    1    0    0    0 -0.65126942953E+01 -0.30935902668E+02  0.55360131485E+01  0.32095057290E+02  0.00000000000E+00 0. -1.
</event>
<event>
 5    1  0.1096978E-009  0.9118800E+02  0.7818608E-02  0.1130116E+00
         25   -1    0    0    0    0  0.00000000000E+00  0.00000000000E+00  0.99999998245E-14  0.12500000000E+03  0.12500000000E+03 0.  0.
        -11    1    3    3    0    0 -0.28885363488E+02 -0.36407418905E+02 -0.34477735681E+02  0.57866904472E+02  0.51100000000E-03 0.  1.
         23    2    1    0    0    0 -0.26167753906E+02 -0.83554798596E+01 -0.83718633019E+01  0.96283219482E+02  0.91901060226E+02 0.  0.
         11    1    3    3    0    0  0.27176095827E+01  0.28051939046E+02  0.26105872379E+02  0.38416315011E+02  0.51100000000E-03 0. -1.
         22    1    1    0    0    0  0.26167753906E+02  0.83554798596E+01  0.83718633019E+01  0.28716780518E+02  0.00000000000E+00 0. -1.
</event>
<event>
 5    1  0.1096978E-009  0.9118800E+02  0.7818608E-02  0.1130116E+00
         25   -1    0    0    0    0  0.00000000000E+00  0.00000000000E+00  0.99999998245E-14  0.12500000000E+03  0.12500000000E+03 0.  0.
        -11    1    3    3    0    0  0.27994642125E+02  0.26782079581E+02 -0.11588349149E+01  0.38759807443E+02  0.51100000000E-03 0.  1.
         23    2    1    0    0    0 -0.16279552471E+02 -0.36385219070E+01 -0.22864421130E+02  0.96697271793E+02  0.92462521858E+02 0.  0.
         11    1    3    3    0    0 -0.44274194597E+02 -0.30420601488E+02 -0.21705586215E+02  0.57937464350E+02  0.51100000000E-03 0. -1.
         22    1    1    0    0    0  0.16279552471E+02  0.36385219070E+01  0.22864421130E+02  0.28302728207E+02  0.00000000000E+00 0. -1.
</event>
<event>
 5    1  0.1096978E-009  0.9118800E+02  0.7818608E-02  0.1130116E+00
         25   -1    0    0    0    0  0.00000000000E+00  0.00000000000E+00  0.99999998245E-14  0.12500000000E+03  0.12500000000E+03 0.  0.
        -11    1    3    3    0    0  0.41459696648E+02 -0.16134814494E+02 -0.11335743631E+02  0.45910105302E+02  0.51100000000E-03 0. -1.
         23    2    1    0    0    0  0.60769518989E+01 -0.13503508872E+02  0.24521557337E+02  0.96354217231E+02  0.91997577727E+02 0.  0.
         11    1    3    3    0    0 -0.35382744749E+02  0.26313056218E+01  0.35857300968E+02  0.50444111928E+02  0.51100000000E-03 0.  1.
         22    1    1    0    0    0 -0.60769518989E+01  0.13503508872E+02 -0.24521557337E+02  0.28645782769E+02  0.00000000000E+00 0. -1.
</event>
<event>
 5    1  0.1096978E-009  0.9118800E+02  0.7818608E-02  0.1130116E+00
         25   -1    0    0    0    0  0.00000000000E+00  0.00000000000E+00  0.99999998245E-14  0.12500000000E+03  0.12500000000E+03 0.  0.
        -11    1    3    3    0    0 -0.48087767129E+02 -0.15949458474E+02 -0.23004619352E+02  0.55641990302E+02  0.51100000000E-03 0. -1.
         23    2    1    0    0    0 -0.10206661627E+02 -0.24297016142E+02 -0.12517203712E+02  0.95824645268E+02  0.91275195518E+02 0.  0.
         11    1    3    3    0    0  0.37881105501E+02 -0.83475576683E+01  0.10487415639E+02  0.40182654965E+02  0.51100000000E-03 0.  1.
         22    1    1    0    0    0  0.10206661627E+02  0.24297016142E+02  0.12517203712E+02  0.29175354732E+02  0.00000000000E+00 0. -1.
</event>
<event>
 5    1  0.1096978E-009  0.9118800E+02  0.7818608E-02  0.1130116E+00
         25   -1    0    0    0    0  0.00000000000E+00  0.00000000000E+00  0.99999998245E-14  0.12500000000E+03  0.12500000000E+03 0.  0.
        -11    1    3    3    0    0  0.21578793277E+02 -0.29636891563E+02  0.31279867278E+02  0.48191490514E+02  0.51100000000E-03 0. -1.
         23    2    1    0    0    0  0.32575818082E+02 -0.29590208283E+01 -0.19875894032E+01  0.92229735436E+02  0.86211564531E+02 0.  0.
         11    1    3    3    0    0  0.10997024805E+02  0.26677870735E+02 -0.33267456681E+02  0.44038244922E+02  0.51100000000E-03 0.  1.
         22    1    1    0    0    0 -0.32575818082E+02  0.29590208283E+01  0.19875894032E+01  0.32770264564E+02  0.00000000000E+00 0.  1.
</event>
<event>
 5    1  0.1096978E-009  0.9118800E+02  0.7818608E-02  0.1130116E+00
         25   -1    0    0    0    0  0.00000000000E+00  0.00000000000E+00  0.99999998245E-14  0.12500000000E+03  0.12500000000E+03 0.  0.
        -11    1    3    3    0    0 -0.21441019286E+02 -0.39370036744E+02 -0.78097231282E+01  0.45505042323E+02  0.51100000000E-03 0. -1.
         23    2    1    0    0    0 -0.26862071007E+02  0.10560231813E+02 -0.37821069119E+01  0.95889972734E+02  0.91364616694E+02 0.  0.
         11    1    3    3    0    0 -0.54210517211E+01  0.49930268557E+02  0.40276162163E+01  0.50384930411E+02  0.51100000000E-03 0.  1.
         22    1    1    0    0    0  0.26862071007E+02 -0.10560231813E+02  0.37821069119E+01  0.29110027266E+02  0.00000000000E+00 0. -1.
</event>
<event>
 5    1  0.1096978E-009  0.9118800E+02  0.7818608E-02  0.1130116E+00
         25   -1    0    0    0    0  0.00000000000E+00  0.00000000000E+00  0.99999998245E-14  0.12500000000E+03  0.12500000000E+03 0.  0.
        -11    1    3    3    0    0 -0.53314273681E+02  0.23954448884E+00  0.26209496068E+02  0.59408811165E+02  0.51100000000E-03 0. -1.
         23    2    1    0    0    0 -0.21813869847E+02 -0.13591356537E+02  0.12096418754E+02  0.96594133760E+02  0.92322984353E+02 0.  0.
         11    1    3    3    0    0  0.31500403834E+02 -0.13830901026E+02 -0.14113077314E+02  0.37185322594E+02  0.51100000000E-03 0.  1.
         22    1    1    0    0    0  0.21813869847E+02  0.13591356537E+02 -0.12096418754E+02  0.28405866240E+02  0.00000000000E+00 0. -1.
</event>
<event>
 5    1  0.1096978E-009  0.9118800E+02  0.7818608E-02  0.1130116E+00
         25   -1    0    0    0    0  0.00000000000E+00  0.00000000000E+00  0.99999998245E-14  0.12500000000E+03  0.12500000000E+03 0.  0.
        -11    1    3    3    0    0  0.21750400068E+02  0.29497301395E+02 -0.25535465066E+02  0.44668004983E+02  0.51100000000E-03 0.  1.
         23    2    1    0    0    0  0.73085589415E+01  0.15925210724E+02  0.22412870885E+02  0.96550673968E+02  0.92264123537E+02 0.  0.
         11    1    3    3    0    0 -0.14441841126E+02 -0.13572090672E+02  0.47948335951E+02  0.51882668985E+02  0.51100000000E-03 0. -1.
         22    1    1    0    0    0 -0.73085589415E+01 -0.15925210724E+02 -0.22412870885E+02  0.28449326032E+02  0.00000000000E+00 0.  1.
</event>
<event>
 5    1  0.1096978E-009  0.9118800E+02  0.7818608E-02  0.1130116E+00
         25   -1    0    0    0    0  0.00000000000E+00  0.00000000000E+00  0.99999998245E-14  0.12500000000E+03  0.12500000000E+03 0.  0.
        -11    1    3    3    0    0  0.21289420113E+02 -0.26639748838E+02 -0.25498905581E+02  0.42580627203E+02  0.51100000000E-03 0.  1.
         23    2    1    0    0    0 -0.57863436471E+01  0.91564429917E+01 -0.34917571729E+02  0.88441019755E+02  0.80531080576E+02 0.  0.
         11    1    3    3    0    0 -0.27075763761E+02  0.35796191830E+02 -0.94186661483E+01  0.45860392552E+02  0.51100000000E-03 0. -1.
         22    1    1    0    0    0  0.57863436471E+01 -0.91564429917E+01  0.34917571729E+02  0.36558980245E+02  0.00000000000E+00 0. -1.
</event>
<event>
 5    1  0.1096978E-009  0.9118800E+02  0.7818608E-02  0.1130116E+00
         25   -1    0    0    0    0  0.00000000000E+00  0.00000000000E+00  0.99999998245E-14  0.12500000000E+03  0.12500000000E+03 0.  0.
        -11    1    3    3    0    0  0.13216174574E+02 -0.23395500395E+02  0.37637038245E+02  0.46244603547E+02  0.51100000000E-03 0.  1.
         23    2    1    0    0    0 -0.20462147121E+02 -0.30913459893E+01  0.33279845978E+02  0.85810664294E+02  0.76339151642E+02 0.  0.
         11    1    3    3    0    0 -0.33678321695E+02  0.20304154406E+02 -0.43571922676E+01  0.39566060747E+02  0.51100000000E-03 0. -1.
         22    1    1    0    0    0  0.20462147121E+02  0.30913459893E+01 -0.33279845978E+02  0.39189335706E+02  0.00000000000E+00 0.  1.
</event>
<event>
 5    1  0.1096978E-009  0.9118800E+02  0.7818608E-02  0.1130116E+00
         25   -1    0    0    0    0  0.00000000000E+00  0.00000000000E+00  0.99999998245E-14  0.12500000000E+03  0.12500000000E+03 0.  0.
        -11    1    3    3    0    0 -0.82441785781E+01 -0.17252223860E+02  0.29605868500E+02  0.35243625784E+02  0.51100000000E-03 0.  1.
         23    2    1    0    0    0  0.18111575216E+02 -0.19362424467E+01 -0.22767979810E+02  0.95842512175E+02  0.91299660699E+02 0.  0.
         11    1    3    3    0    0  0.26355753794E+02  0.15315981413E+02 -0.52373848310E+02  0.60598886391E+02  0.51100000000E-03 0. -1.
         22    1    1    0    0    0 -0.18111575216E+02  0.19362424467E+01  0.22767979810E+02  0.29157487825E+02  0.00000000000E+00 0. -1.
</event>
<event>
 5    1  0.1096978E-009  0.9118800E+02  0.7818608E-02  0.1130116E+00
         25   -1    0    0    0    0  0.00000000000E+00  0.00000000000E+00  0.99999998245E-14  0.12500000000E+03  0.12500000000E+03 0.  0.
        -11    1    3    3    0    0 -0.81917937183E+01 -0.48781155904E+02 -0.25707180084E+02  0.55745544788E+02  0.51100000000E-03 0.  1.
         23    2    1    0    0    0 -0.66988748522E+01 -0.28033938705E+02  0.77602335828E+01  0.95150412585E+02  0.90347125832E+02 0.  0.
         11    1    3    3    0    0  0.14929188662E+01  0.20747217198E+02  0.33467413667E+02  0.39404867796E+02  0.51100000000E-03 0. -1.
         22    1    1    0    0    0  0.66988748522E+01  0.28033938705E+02 -0.77602335828E+01  0.29849587415E+02  0.00000000000E+00 0.  1.
</event>
<event>
 5    1  0.1096978E-009  0.9118800E+02  0.7818608E-02  0.1130116E+00
         25   -1    0    0    0    0  0.00000000000E+00  0.00000000000E+00  0.99999998245E-14  0.12500000000E+03  0.12500000000E+03 0.  0.
        -11    1    3    3    0    0  0.30484199917E+02 -0.52257814407E+01  0.27933563983E+02  0.41675883113E+02  0.51100000000E-03 0. -1.
         23    2    1    0    0    0 -0.79956552921E+01  0.26795667608E+02  0.56518456839E+01  0.96471388647E+02  0.92156644696E+02 0.  0.
         11    1    3    3    0    0 -0.38479855209E+02  0.32021449049E+02 -0.22281718299E+02  0.54795505534E+02  0.51100000000E-03 0.  1.
         22    1    1    0    0    0  0.79956552921E+01 -0.26795667608E+02 -0.56518456839E+01  0.28528611353E+02  0.00000000000E+00 0.  1.
</event>
<event>
 5    1  0.1096978E-009  0.9118800E+02  0.7818608E-02  0.1130116E+00
         25   -1    0    0    0    0  0.00000000000E+00  0.00000000000E+00  0.99999998245E-14  0.12500000000E+03  0.12500000000E+03 0.  0.
        -11    1    3    3    0    0  0.38740093045E+02 -0.67616453673E+01 -0.42676535480E+00  0.39328066138E+02  0.51100000000E-03 0. -1.
         23    2    1    0    0    0 -0.15919197646E+02 -0.23576633341E+02  0.10246138479E+01  0.96533733526E+02  0.92241169667E+02 0.  0.
         11    1    3    3    0    0 -0.54659290692E+02 -0.16814987974E+02  0.14513792027E+01  0.57205667388E+02  0.51100000000E-03 0.  1.
         22    1    1    0    0    0  0.15919197646E+02  0.23576633341E+02 -0.10246138479E+01  0.28466266474E+02  0.00000000000E+00 0.  1.
</event>
<event>
 5    1  0.1096978E-009  0.9118800E+02  0.7818608E-02  0.1130116E+00
         25   -1    0    0    0    0  0.00000000000E+00  0.00000000000E+00  0.99999998245E-14  0.12500000000E+03  0.12500000000E+03 0.  0.
        -11    1    3    3    0    0 -0.41406287833E+02 -0.14359998400E+02 -0.19011457418E+02  0.47771599718E+02  0.51100000000E-03 0.  1.
         23    2    1    0    0    0 -0.27205948895E+02  0.20757876835E+02  0.13016778203E+01  0.90754599270E+02  0.84045522293E+02 0.  0.
         11    1    3    3    0    0  0.14200338938E+02  0.35117875236E+02  0.20313135239E+02  0.42982999552E+02  0.51100000000E-03 0. -1.
         22    1    1    0    0    0  0.27205948895E+02 -0.20757876835E+02 -0.13016778203E+01  0.34245400730E+02  0.00000000000E+00 0. -1.
</event>
<event>
 5    1  0.1096978E-009  0.9118800E+02  0.7818608E-02  0.1130116E+00
         25   -1    0    0    0    0  0.00000000000E+00  0.00000000000E+00  0.99999998245E-14  0.12500000000E+03  0.12500000000E+03 0.  0.
        -11    1    3    3    0    0  0.27515107074E+02  0.10760625345E+01  0.32741909710E+02  0.42781674577E+02  0.51100000000E-03 0. -1.
         23    2    1    0    0    0  0.16288129043E+02  0.29327116164E+02 -0.48249985640E+01  0.91108061411E+02  0.84569588817E+02 0.  0.
         11    1    3    3    0    0 -0.11226978031E+02  0.28251053629E+02 -0.37566908274E+02  0.48326386834E+02  0.51100000000E-03 0.  1.
         22    1    1    0    0    0 -0.16288129043E+02 -0.29327116164E+02  0.48249985640E+01  0.33891938589E+02  0.00000000000E+00 0.  1.
</event>
<event>
 5    1  0.1096978E-009  0.9118800E+02  0.7818608E-02  0.1130116E+00
         25   -1    0    0    0    0  0.00000000000E+00  0.00000000000E+00  0.99999998245E-14  0.12500000000E+03  0.12500000000E+03 0.  0.
        -11    1    3    3    0    0 -0.28185229468E+02 -0.21200018568E+02 -0.15406082242E+02  0.38486300391E+02  0.51100000000E-03 0.  1.
         23    2    1    0    0    0  0.70122654962E+01  0.25175394532E+02  0.57610366453E+00  0.98859911005E+02  0.95341374813E+02 0.  0.
         11    1    3    3    0    0  0.35197494964E+02  0.46375413100E+02  0.15982185907E+02  0.60373610614E+02  0.51100000000E-03 0. -1.
         22    1    1    0    0    0 -0.70122654962E+01 -0.25175394532E+02 -0.57610366453E+00  0.26140088995E+02  0.00000000000E+00 0. -1.
</event>
<event>
 5    1  0.1096978E-009  0.9118800E+02  0.7818608E-02  0.1130116E+00
         25   -1    0    0    0    0  0.00000000000E+00  0.00000000000E+00  0.99999998245E-14  0.12500000000E+03  0.12500000000E+03 0.  0.
        -11    1    3    3    0    0 -0.20586486453E+02 -0.52554069196E+01 -0.40102734132E+02  0.45383389158E+02  0.51100000000E-03 0. -1.
         23    2    1    0    0    0 -0.55314656479E+01  0.27548185344E+02 -0.36774562235E+01  0.96662334036E+02  0.92415277466E+02 0.  0.
         11    1    3    3    0    0  0.15055020805E+02  0.32803592264E+02  0.36425277908E+02  0.51278944878E+02  0.51100000000E-03 0.  1.
         22    1    1    0    0    0  0.55314656479E+01 -0.27548185344E+02  0.36774562235E+01  0.28337665964E+02  0.00000000000E+00 0.  1.
</event>
<event>
 5    1  0.1096978E-009  0.9118800E+02  0.7818608E-02  0.1130116E+00
         25   -1    0    0    0    0  0.00000000000E+00  0.00000000000E+00  0.99999998245E-14  0.12500000000E+03  0.12500000000E+03 0.  0.
        -11    1    3    3    0    0  0.11306796844E+02  0.22825496323E+02 -0.54957503262E+02  0.60573708012E+02  0.51100000000E-03 0.  1.
         23    2    1    0    0    0  0.88583534340E+01  0.16417484665E+02 -0.15149256556E+02  0.10096868288E+03  0.98067174530E+02 0.  0.
         11    1    3    3    0    0 -0.24484434104E+01 -0.64080116580E+01  0.39808246706E+02  0.40394974869E+02  0.51100000000E-03 0. -1.
         22    1    1    0    0    0 -0.88583534340E+01 -0.16417484665E+02  0.15149256556E+02  0.24031317119E+02  0.00000000000E+00 0.  1.
</event>
<event>
 5    1  0.1096978E-009  0.9118800E+02  0.7818608E-02  0.1130116E+00
         25   -1    0    0    0    0  0.00000000000E+00  0.00000000000E+00  0.99999998245E-14  0.12500000000E+03  0.12500000000E+03 0.  0.
        -11    1    3    3    0    0 -0.93747448940E+01 -0.24782119994E+02 -0.25267141446E+02  0.36612398861E+02  0.51100000000E-03 0. -1.
         23    2    1    0    0    0 -0.10188679064E+02  0.19844898529E+02  0.16116375416E+02  0.97479703213E+02  0.93514308014E+02 0.  0.
         11    1    3    3    0    0 -0.81393417023E+00  0.44627018523E+02  0.41383516862E+02  0.60867304353E+02  0.51100000000E-03 0.  1.
         22    1    1    0    0    0  0.10188679064E+02 -0.19844898529E+02 -0.16116375416E+02  0.27520296787E+02  0.00000000000E+00 0.  1.
</event>
<event>
 5    1  0.1096978E-009  0.9118800E+02  0.7818608E-02  0.1130116E+00
         25   -1    0    0    0    0  0.00000000000E+00  0.00000000000E+00  0.99999998245E-14  0.12500000000E+03  0.12500000000E+03 0.  0.
        -11    1    3    3    0    0 -0.23771468751E+02  0.44149489964E+02 -0.25552786501E+02  0.56277927191E+02  0.51100000000E-03 0. -1.
         23    2    1    0    0    0 -0.64524055457E+01  0.32818716882E+02  0.28617828991E+01  0.91430795117E+02  0.85045274879E+02 0.  0.
         11    1    3    3    0    0  0.17319063206E+02 -0.11330773082E+02  0.28414569400E+02  0.35152867926E+02  0.51100000000E-03 0.  1.
         22    1    1    0    0    0  0.64524055457E+01 -0.32818716882E+02 -0.28617828991E+01  0.33569204883E+02  0.00000000000E+00 0. -1.
</event>
<event>
 5    1  0.1096978E-009  0.9118800E+02  0.7818608E-02  0.1130116E+00
         25   -1    0    0    0    0  0.00000000000E+00  0.00000000000E+00  0.99999998245E-14  0.12500000000E+03  0.12500000000E+03 0.  0.
        -11    1    3    3    0    0 -0.23215638480E+02  0.20520818314E+02  0.26507791448E+02  0.40776621513E+02  0.51100000000E-03 0. -1.
         23    2    1    0    0    0  0.26557114804E+02  0.17380808366E+01  0.11121082693E+02  0.96155940786E+02  0.91727777671E+02 0.  0.
         11    1    3    3    0    0  0.49772753283E+02 -0.18782737477E+02 -0.15386708755E+02  0.55379319273E+02  0.51100000000E-03 0.  1.
         22    1    1    0    0    0 -0.26557114804E+02 -0.17380808366E+01 -0.11121082693E+02  0.28844059214E+02  0.00000000000E+00 0.  1.
</event>
<event>
 5    1  0.1096978E-009  0.9118800E+02  0.7818608E-02  0.1130116E+00
         25   -1    0    0    0    0  0.00000000000E+00  0.00000000000E+00  0.99999998245E-14  0.12500000000E+03  0.12500000000E+03 0.  0.
        -11    1    3    3    0    0 -0.32737752022E+02 -0.11482195925E+02 -0.12883708298E+02  0.37007987928E+02  0.51100000000E-03 0.  1.
         23    2    1    0    0    0  0.16959262149E+02 -0.17902008330E+02  0.16717364234E+02  0.95207908066E+02  0.90426638865E+02 0.  0.
         11    1    3    3    0    0  0.49697014170E+02 -0.64198124052E+01  0.29601072532E+02  0.58199920138E+02  0.51100000000E-03 0. -1.
         22    1    1    0    0    0 -0.16959262149E+02  0.17902008330E+02 -0.16717364234E+02  0.29792091934E+02  0.00000000000E+00 0.  1.
</event>
<event>
 5    1  0.1096978E-009  0.9118800E+02  0.7818608E-02  0.1130116E+00
         25   -1    0    0    0    0  0.00000000000E+00  0.00000000000E+00  0.99999998245E-14  0.12500000000E+03  0.12500000000E+03 0.  0.
        -11    1    3    3    0    0 -0.97662118863E+01  0.45323806692E+02 -0.28212240047E+02  0.54272984407E+02  0.51100000000E-03 0. -1.
         23    2    1    0    0    0 -0.21201925655E+02  0.43652738419E+01 -0.14466170974E+02  0.98964497896E+02  0.95478397944E+02 0.  0.
         11    1    3    3    0    0 -0.11435713768E+02 -0.40958532851E+02  0.13746069074E+02  0.44691513489E+02  0.51100000000E-03 0.  1.
         22    1    1    0    0    0  0.21201925655E+02 -0.43652738419E+01  0.14466170974E+02  0.26035502104E+02  0.00000000000E+00 0. -1.
</event>
<event>
 5    1  0.1096978E-009  0.9118800E+02  0.7818608E-02  0.1130116E+00
         25   -1    0    0    0    0  0.00000000000E+00  0.00000000000E+00  0.99999998245E-14  0.12500000000E+03  0.12500000000E+03 0.  0.
        -11    1    3    3    0    0 -0.61365116811E+01 -0.30147213246E+02  0.40845092929E+02  0.51135436429E+02  0.51100000000E-03 0. -1.
         23    2    1    0    0    0  0.22898685845E+02 -0.62629391694E+01  0.18793142320E+02  0.94722014288E+02  0.89752457192E+02 0.  0.
         11    1    3    3    0    0  0.29035197526E+02  0.23884274077E+02 -0.22051950609E+02  0.43586577859E+02  0.51100000000E-03 0.  1.
         22    1    1    0    0    0 -0.22898685845E+02  0.62629391694E+01 -0.18793142320E+02  0.30277985712E+02  0.00000000000E+00 0. -1.
</event>
<event>
 5    1  0.1096978E-009  0.9118800E+02  0.7818608E-02  0.1130116E+00
         25   -1    0    0    0    0  0.00000000000E+00  0.00000000000E+00  0.99999998245E-14  0.12500000000E+03  0.12500000000E+03 0.  0.
        -11    1    3    3    0    0  0.59806522033E+01  0.39946106283E+02 -0.53394680631E+01  0.40742723613E+02  0.51100000000E-03 0.  1.
         23    2    1    0    0    0  0.25702934054E+02 -0.90333888016E+01  0.10397679421E+02  0.95839158628E+02  0.91295069182E+02 0.  0.
         11    1    3    3    0    0  0.19722281850E+02 -0.48979495085E+02  0.15737147484E+02  0.55096435015E+02  0.51100000000E-03 0. -1.
         22    1    1    0    0    0 -0.25702934054E+02  0.90333888016E+01 -0.10397679421E+02  0.29160841372E+02  0.00000000000E+00 0.  1.
</event>
<event>
 5    1  0.1096978E-009  0.9118800E+02  0.7818608E-02  0.1130116E+00
         25   -1    0    0    0    0  0.00000000000E+00  0.00000000000E+00  0.99999998245E-14  0.12500000000E+03  0.12500000000E+03 0.  0.
        -11    1    3    3    0    0  0.33728837581E+02 -0.12724459368E+02 -0.83531446640E+01  0.37004342675E+02  0.51100000000E-03 0. -1.
         23    2    1    0    0    0 -0.23686737561E+02  0.94969663385E+01 -0.68009563446E+01  0.98589643828E+02  0.94986372480E+02 0.  0.
         11    1    3    3    0    0 -0.57415575142E+02  0.22221425706E+02  0.15521883194E+01  0.61585301153E+02  0.51100000000E-03 0.  1.
         22    1    1    0    0    0  0.23686737561E+02 -0.94969663385E+01  0.68009563446E+01  0.26410356172E+02  0.00000000000E+00 0.  1.
</event>
<event>
 5    1  0.1096978E-009  0.9118800E+02  0.7818608E-02  0.1130116E+00
         25   -1    0    0    0    0  0.00000000000E+00  0.00000000000E+00  0.99999998245E-14  0.12500000000E+03  0.12500000000E+03 0.  0.
        -11    1    3    3    0    0 -0.14082487853E+02 -0.11835720580E+01 -0.32693100535E+02  0.35616795614E+02  0.51100000000E-03 0. -1.
         23    2    1    0    0    0  0.26515554053E+02 -0.57764522895E+01  0.11253438971E+02  0.95621744496E+02  0.90996901727E+02 0.  0.
         11    1    3    3    0    0  0.40598041906E+02 -0.45928802315E+01  0.43946539506E+02  0.60004948882E+02  0.51100000000E-03 0.  1.
         22    1    1    0    0    0 -0.26515554053E+02  0.57764522895E+01 -0.11253438971E+02  0.29378255504E+02  0.00000000000E+00 0.  1.
</event>
<event>
 5    1  0.1096978E-009  0.9118800E+02  0.7818608E-02  0.1130116E+00
         25   -1    0    0    0    0  0.00000000000E+00  0.00000000000E+00  0.99999998245E-14  0.12500000000E+03  0.12500000000E+03 0.  0.
        -11    1    3    3    0    0  0.55779192127E+02  0.11251440571E+02  0.21787424326E+02  0.60931150065E+02  0.51100000000E-03 0.  1.
         23    2    1    0    0    0  0.29419167991E+02  0.13069181576E+01  0.17568617178E+01  0.95499456896E+02  0.90828763197E+02 0.  0.
         11    1    3    3    0    0 -0.26360024136E+02 -0.99445224129E+01 -0.20030562609E+02  0.34568306831E+02  0.51100000000E-03 0. -1.
         22    1    1    0    0    0 -0.29419167991E+02 -0.13069181576E+01 -0.17568617178E+01  0.29500543104E+02  0.00000000000E+00 0.  1.
</event>
<event>
 5    1  0.1096978E-009  0.9118800E+02  0.7818608E-02  0.1130116E+00
         25   -1    0    0    0    0  0.00000000000E+00  0.00000000000E+00  0.99999998245E-14  0.12500000000E+03  0.12500000000E+03 0.  0.
        -11    1    3    3    0    0 -0.25476836478E+02 -0.29755694260E+02  0.35066142170E+01  0.39328957288E+02  0.51100000000E-03 0. -1.
         23    2    1    0    0    0  0.45058372356E+01 -0.47530566771E+02  0.13121046990E+02  0.75486171418E+02  0.56978442015E+02 0.  0.
         11    1    3    3    0    0  0.29982673714E+02 -0.17774872511E+02  0.96144327733E+01  0.36157214130E+02  0.51100000000E-03 0.  1.
         22    1    1    0    0    0 -0.45058372356E+01  0.47530566771E+02 -0.13121046990E+02  0.49513828582E+02  0.00000000000E+00 0. -1.
</event>
<event>
 5    1  0.1096978E-009  0.9118800E+02  0.7818608E-02  0.1130116E+00
         25   -1    0    0    0    0  0.00000000000E+00  0.00000000000E+00  0.99999998245E-14  0.12500000000E+03  0.12500000000E+03 0.  0.
        -11    1    3    3    0    0 -0.29054390264E+02  0.36084957449E+01 -0.28875702184E+02  0.41121588151E+02  0.51100000000E-03 0.  1.
         23    2    1    0    0    0  0.87533920803E+01 -0.27310943318E+02 -0.36591208880E+01  0.96088087861E+02  0.91635265947E+02 0.  0.
         11    1    3    3    0    0  0.37807782345E+02 -0.30919439063E+02  0.25216581296E+02  0.54966499710E+02  0.51100000000E-03 0. -1.
         22    1    1    0    0    0 -0.87533920803E+01  0.27310943318E+02  0.36591208880E+01  0.28911912139E+02  0.00000000000E+00 0. -1.
</event>
<event>
 5    1  0.1096978E-009  0.9118800E+02  0.7818608E-02  0.1130116E+00
         25   -1    0    0    0    0  0.00000000000E+00  0.00000000000E+00  0.99999998245E-14  0.12500000000E+03  0.12500000000E+03 0.  0.
        -11    1    3    3    0    0 -0.31153338924E+01  0.54919007924E+02  0.17039760766E+02  0.57586076302E+02  0.51100000000E-03 0.  1.
         23    2    1    0    0    0 -0.13702996697E+02  0.18413687476E+02  0.18342842538E+02  0.95618102898E+02  0.90991899224E+02 0.  0.
         11    1    3    3    0    0 -0.10587662804E+02 -0.36505320448E+02  0.13030817723E+01  0.38032026596E+02  0.51100000000E-03 0. -1.
         22    1    1    0    0    0  0.13702996697E+02 -0.18413687476E+02 -0.18342842538E+02  0.29381897102E+02  0.00000000000E+00 0.  1.
</event>
<event>
 5    1  0.1096978E-009  0.9118800E+02  0.7818608E-02  0.1130116E+00
         25   -1    0    0    0    0  0.00000000000E+00  0.00000000000E+00  0.99999998245E-14  0.12500000000E+03  0.12500000000E+03 0.  0.
        -11    1    3    3    0    0  0.32269363265E+02 -0.38467289020E+02 -0.13886893867E+02  0.52095008893E+02  0.51100000000E-03 0. -1.
         23    2    1    0    0    0  0.31793631593E+02 -0.24781283922E+01 -0.18097281807E+02  0.88332742958E+02  0.80362838050E+02 0.  0.
         11    1    3    3    0    0 -0.47573167201E+00  0.35989160627E+02 -0.42103879407E+01  0.36237734065E+02  0.51100000000E-03 0.  1.
         22    1    1    0    0    0 -0.31793631593E+02  0.24781283922E+01  0.18097281807E+02  0.36667257042E+02  0.00000000000E+00 0. -1.
</event>
<event>
 5    1  0.1096978E-009  0.9118800E+02  0.7818608E-02  0.1130116E+00
         25   -1    0    0    0    0  0.00000000000E+00  0.00000000000E+00  0.99999998245E-14  0.12500000000E+03  0.12500000000E+03 0.  0.
        -11    1    3    3    0    0  0.20762141333E+02  0.15154681313E+02  0.40725605154E+02  0.48159171441E+02  0.51100000000E-03 0.  1.
         23    2    1    0    0    0  0.64157319287E+01 -0.22010204457E+02  0.25243214345E+02  0.90899698141E+02  0.84261049929E+02 0.  0.
         11    1    3    3    0    0 -0.14346409405E+02 -0.37164885771E+02 -0.15482390809E+02  0.42740526700E+02  0.51100000000E-03 0. -1.
         22    1    1    0    0    0 -0.64157319287E+01  0.22010204457E+02 -0.25243214345E+02  0.34100301859E+02  0.00000000000E+00 0.  1.
</event>
<event>
 5    1  0.1096978E-009  0.9118800E+02  0.7818608E-02  0.1130116E+00
         25   -1    0    0    0    0  0.00000000000E+00  0.00000000000E+00  0.99999998245E-14  0.12500000000E+03  0.12500000000E+03 0.  0.
        -11    1    3    3    0    0 -0.23666179353E+02 -0.33347797446E+02 -0.40861201454E+02  0.57808316220E+02  0.51100000000E-03 0.  1.
         23    2    1    0    0    0 -0.22730831749E+02 -0.33405841096E+01 -0.13980713194E+02  0.98105566457E+02  0.94347186573E+02 0.  0.
         11    1    3    3    0    0  0.93534760411E+00  0.30007213336E+02  0.26880488260E+02  0.40297250237E+02  0.51100000000E-03 0. -1.
         22    1    1    0    0    0  0.22730831749E+02  0.33405841096E+01  0.13980713194E+02  0.26894433543E+02  0.00000000000E+00 0.  1.
</event>
<event>
 5    1  0.1096978E-009  0.9118800E+02  0.7818608E-02  0.1130116E+00
         25   -1    0    0    0    0  0.00000000000E+00  0.00000000000E+00  0.99999998245E-14  0.12500000000E+03  0.12500000000E+03 0.  0.
        -11    1    3    3    0    0  0.28109706103E+02  0.45643830158E+02 -0.20778476992E+02  0.57491389922E+02  0.51100000000E-03 0.  1.
         23    2    1    0    0    0  0.68054365554E+01  0.15466270563E+01 -0.17014692670E+02  0.10660962783E+03  0.10501146108E+03 0.  0.
         11    1    3    3    0    0 -0.21304269548E+02 -0.44097203102E+02  0.37637843225E+01  0.49118237907E+02  0.51100000000E-03 0. -1.
         22    1    1    0    0    0 -0.68054365554E+01 -0.15466270563E+01  0.17014692670E+02  0.18390372172E+02  0.00000000000E+00 0. -1.
</event>
<event>
 5    1  0.1096978E-009  0.9118800E+02  0.7818608E-02  0.1130116E+00
         25   -1    0    0    0    0  0.00000000000E+00  0.00000000000E+00  0.99999998245E-14  0.12500000000E+03  0.12500000000E+03 0.  0.
        -11    1    3    3    0    0  0.46225581072E+02 -0.39687233594E+02  0.95497067690E+01  0.61669098870E+02  0.51100000000E-03 0. -1.
         23    2    1    0    0    0  0.15852769554E+02 -0.23044623493E+02  0.45424279279E+01  0.96662769614E+02  0.92415866622E+02 0.  0.
         11    1    3    3    0    0 -0.30372811518E+02  0.16642610101E+02 -0.50072788411E+01  0.34993670744E+02  0.51100000000E-03 0.  1.
         22    1    1    0    0    0 -0.15852769554E+02  0.23044623493E+02 -0.45424279279E+01  0.28337230386E+02  0.00000000000E+00 0. -1.
</event>
<event>
 5    1  0.1096978E-009  0.9118800E+02  0.7818608E-02  0.1130116E+00
         25   -1    0    0    0    0  0.00000000000E+00  0.00000000000E+00  0.99999998245E-14  0.12500000000E+03  0.12500000000E+03 0.  0.
        -11    1    3    3    0    0 -0.53893763351E+02  0.15305618177E+02  0.17789770590E+02  0.58781592474E+02  0.51100000000E-03 0. -1.
         23    2    1    0    0    0 -0.16943565578E+02  0.10052036906E+02  0.20956037100E+02  0.96237466186E+02  0.91838807410E+02 0.  0.
         11    1    3    3    0    0  0.36950197773E+02 -0.52535812712E+01  0.31662665099E+01  0.37455873712E+02  0.51100000000E-03 0.  1.
         22    1    1    0    0    0  0.16943565578E+02 -0.10052036906E+02 -0.20956037100E+02  0.28762533814E+02  0.00000000000E+00 0. -1.
</event>
<event>
 5    1  0.1096978E-009  0.9118800E+02  0.7818608E-02  0.1130116E+00
         25   -1    0    0    0    0  0.00000000000E+00  0.00000000000E+00  0.99999998245E-14  0.12500000000E+03  0.12500000000E+03 0.  0.
        -11    1    3    3    0    0  0.47105911107E+02 -0.15576533263E+02  0.55383406424E+01  0.49922624801E+02  0.51100000000E-03 0.  1.
         23    2    1    0    0    0  0.12364674912E+02 -0.11051842073E+02 -0.24054418771E+02  0.95782822496E+02  0.91217901884E+02 0.  0.
         11    1    3    3    0    0 -0.34741236195E+02  0.45246911907E+01 -0.29592759413E+02  0.45860197695E+02  0.51100000000E-03 0. -1.
         22    1    1    0    0    0 -0.12364674912E+02  0.11051842073E+02  0.24054418771E+02  0.29217177504E+02  0.00000000000E+00 0. -1.
</event>
<event>
 5    1  0.1096978E-009  0.9118800E+02  0.7818608E-02  0.1130116E+00
         25   -1    0    0    0    0  0.00000000000E+00  0.00000000000E+00  0.99999998245E-14  0.12500000000E+03  0.12500000000E+03 0.  0.
        -11    1    3    3    0    0 -0.40511063026E+01  0.43411605823E+02  0.19672594501E+02  0.47832937993E+02  0.51100000000E-03 0. -1.
         23    2    1    0    0    0  0.18068933840E+02  0.34854105098E+01  0.25184474125E+02  0.93808780186E+02  0.88471436331E+02 0.  0.
         11    1    3    3    0    0  0.22120040143E+02 -0.39926195313E+02  0.55118796233E+01  0.45975842193E+02  0.51100000000E-03 0.  1.
         22    1    1    0    0    0 -0.18068933840E+02 -0.34854105098E+01 -0.25184474125E+02  0.31191219814E+02  0.00000000000E+00 0.  1.
</event>
<event>
 5    1  0.1096978E-009  0.9118800E+02  0.7818608E-02  0.1130116E+00
         25   -1    0    0    0    0  0.00000000000E+00  0.00000000000E+00  0.99999998245E-14  0.12500000000E+03  0.12500000000E+03 0.  0.
        -11    1    3    3    0    0 -0.24535683562E+02 -0.28728279926E+02 -0.15141523988E+01  0.37810137438E+02  0.51100000000E-03 0.  1.
         23    2    1    0    0    0  0.17896335343E+02  0.99102493623E-01  0.23967086603E+02  0.95088298606E+02  0.90261146966E+02 0.  0.
         11    1    3    3    0    0  0.42432018905E+02  0.28827382419E+02  0.25481239002E+02  0.57278161168E+02  0.51100000000E-03 0. -1.
         22    1    1    0    0    0 -0.17896335343E+02 -0.99102493623E-01 -0.23967086603E+02  0.29911701394E+02  0.00000000000E+00 0. -1.
</event>
<event>
 5    1  0.1096978E-009  0.9118800E+02  0.7818608E-02  0.1130116E+00
         25   -1    0    0    0    0  0.00000000000E+00  0.00000000000E+00  0.99999998245E-14  0.12500000000E+03  0.12500000000E+03 0.  0.
        -11    1    3    3    0    0 -0.34090917477E+02  0.22446535573E+02  0.44453722232E+01  0.41058482049E+02  0.51100000000E-03 0. -1.
         23    2    1    0    0    0  0.10656437031E+02  0.13554538626E+02 -0.24465077620E+02  0.95069661036E+02  0.90235332653E+02 0.  0.
         11    1    3    3    0    0  0.44747354509E+02 -0.88919969471E+01 -0.28910449843E+02  0.54011178988E+02  0.51100000000E-03 0.  1.
         22    1    1    0    0    0 -0.10656437031E+02 -0.13554538626E+02  0.24465077620E+02  0.29930338964E+02  0.00000000000E+00 0.  1.
</event>
<event>
 5    1  0.1096978E-009  0.9118800E+02  0.7818608E-02  0.1130116E+00
         25   -1    0    0    0    0  0.00000000000E+00  0.00000000000E+00  0.99999998245E-14  0.12500000000E+03  0.12500000000E+03 0.  0.
        -11    1    3    3    0    0  0.93785712760E+01 -0.25804397608E+02 -0.11025745486E+01  0.27477994941E+02  0.51100000000E-03 0. -1.
         23    2    1    0    0    0 -0.20502659716E+01  0.35256456725E+02  0.14812514250E+01  0.89652928874E+02  0.82390728960E+02 0.  0.
         11    1    3    3    0    0 -0.11428837248E+02  0.61060854333E+02  0.25838259736E+01  0.62174933933E+02  0.51100000000E-03 0.  1.
         22    1    1    0    0    0  0.20502659716E+01 -0.35256456725E+02 -0.14812514250E+01  0.35347071126E+02  0.00000000000E+00 0.  1.
</event>
<event>
 5    1  0.1096978E-009  0.9118800E+02  0.7818608E-02  0.1130116E+00
         25   -1    0    0    0    0  0.00000000000E+00  0.00000000000E+00  0.99999998245E-14  0.12500000000E+03  0.12500000000E+03 0.  0.
        -11    1    3    3    0    0 -0.29981216767E+01 -0.20246419709E+02 -0.38045915533E+02  0.43201827897E+02  0.51100000000E-03 0.  1.
         23    2    1    0    0    0  0.26850725897E+02  0.89014514538E+01 -0.53418435145E+01  0.96212283673E+02  0.91804525587E+02 0.  0.
         11    1    3    3    0    0  0.29848847574E+02  0.29147871163E+02  0.32704072018E+02  0.53010455777E+02  0.51100000000E-03 0. -1.
         22    1    1    0    0    0 -0.26850725897E+02 -0.89014514538E+01  0.53418435145E+01  0.28787716327E+02  0.00000000000E+00 0. -1.
</event>
<event>
 5    1  0.1096978E-009  0.9118800E+02  0.7818608E-02  0.1130116E+00
         25   -1    0    0    0    0  0.00000000000E+00  0.00000000000E+00  0.99999998245E-14  0.12500000000E+03  0.12500000000E+03 0.  0.
        -11    1    3    3    0    0  0.91448666383E+01  0.34755485940E+02  0.42446580538E+00  0.35940959367E+02  0.51100000000E-03 0.  1.
         23    2    1    0    0    0 -0.23164179033E+02 -0.16505745037E+02  0.10404160817E+01  0.96537721892E+02  0.92246574316E+02 0.  0.
         11    1    3    3    0    0 -0.32309045671E+02 -0.51261230977E+02  0.61595027628E+00  0.60596762524E+02  0.51100000000E-03 0. -1.
         22    1    1    0    0    0  0.23164179033E+02  0.16505745037E+02 -0.10404160817E+01  0.28462278108E+02  0.00000000000E+00 0. -1.
</event>
<event>
 5    1  0.1096978E-009  0.9118800E+02  0.7818608E-02  0.1130116E+00
         25   -1    0    0    0    0  0.00000000000E+00  0.00000000000E+00  0.99999998245E-14  0.12500000000E+03  0.12500000000E+03 0.  0.
        -11    1    3    3    0    0 -0.31116671401E+02  0.23232728398E+01 -0.26442993551E+02  0.40900815932E+02  0.51100000000E-03 0.  1.
         23    2    1    0    0    0 -0.57460355233E+01  0.71022706837E+01  0.24958851729E+02  0.98421748502E+02  0.94765168313E+02 0.  0.
         11    1    3    3    0    0  0.25370635877E+02  0.47789978439E+01  0.51401845279E+02  0.57520932569E+02  0.51100000000E-03 0. -1.
         22    1    1    0    0    0  0.57460355233E+01 -0.71022706837E+01 -0.24958851729E+02  0.26578251498E+02  0.00000000000E+00 0. -1.
</event>
<event>
 5    1  0.1096978E-009  0.9118800E+02  0.7818608E-02  0.1130116E+00
         25   -1    0    0    0    0  0.00000000000E+00  0.00000000000E+00  0.99999998245E-14  0.12500000000E+03  0.12500000000E+03 0.  0.
        -11    1    3    3    0    0 -0.40932969601E+01  0.16311923943E+02  0.30578746517E+02  0.34898333507E+02  0.51100000000E-03 0.  1.
         23    2    1    0    0    0  0.22945891014E+02 -0.33288259659E+01 -0.19228109244E+02  0.94878327041E+02  0.89969893633E+02 0.  0.
         11    1    3    3    0    0  0.27039187974E+02 -0.19640749909E+02 -0.49806855761E+02  0.59979993534E+02  0.51100000000E-03 0. -1.
         22    1    1    0    0    0 -0.22945891014E+02  0.33288259659E+01  0.19228109244E+02  0.30121672959E+02  0.00000000000E+00 0. -1.
</event>
<event>
 5    1  0.1096978E-009  0.9118800E+02  0.7818608E-02  0.1130116E+00
         25   -1    0    0    0    0  0.00000000000E+00  0.00000000000E+00  0.99999998245E-14  0.12500000000E+03  0.12500000000E+03 0.  0.
        -11    1    3    3    0    0 -0.68467490510E+01  0.50404775798E+02 -0.23650042563E+02  0.56096737065E+02  0.51100000000E-03 0. -1.
         23    2    1    0    0    0  0.16654905548E+02  0.22085148499E+02 -0.71369753028E+01  0.96432954659E+02  0.92104498613E+02 0.  0.
         11    1    3    3    0    0  0.23501654599E+02 -0.28319627299E+02  0.16513067260E+02  0.40336217594E+02  0.51100000000E-03 0.  1.
         22    1    1    0    0    0 -0.16654905548E+02 -0.22085148499E+02  0.71369753028E+01  0.28567045341E+02  0.00000000000E+00 0. -1.
</event>
<event>
 5    1  0.1096978E-009  0.9118800E+02  0.7818608E-02  0.1130116E+00
         25   -1    0    0    0    0  0.00000000000E+00  0.00000000000E+00  0.99999998245E-14  0.12500000000E+03  0.12500000000E+03 0.  0.
        -11    1    3    3    0    0  0.31639131260E+02 -0.27040777090E+02 -0.27071826674E+02  0.49649995491E+02  0.51100000000E-03 0.  1.
         23    2    1    0    0    0 -0.77663438532E+01 -0.28162667782E+02 -0.35103408449E+01  0.95575954624E+02  0.90933979656E+02 0.  0.
         11    1    3    3    0    0 -0.39405475113E+02 -0.11218906917E+01  0.23561485829E+02  0.45925959133E+02  0.51100000000E-03 0. -1.
         22    1    1    0    0    0  0.77663438532E+01  0.28162667782E+02  0.35103408449E+01  0.29424045376E+02  0.00000000000E+00 0.  1.
</event>
<event>
 5    1  0.1096978E-009  0.9118800E+02  0.7818608E-02  0.1130116E+00
         25   -1    0    0    0    0  0.00000000000E+00  0.00000000000E+00  0.99999998245E-14  0.12500000000E+03  0.12500000000E+03 0.  0.
        -11    1    3    3    0    0  0.18976212569E+02  0.33209792769E+02 -0.51903332995E+01  0.38599566568E+02  0.51100000000E-03 0.  1.
         23    2    1    0    0    0 -0.19811920994E+02 -0.84749848532E+01 -0.17953691244E+02  0.96952315407E+02  0.92806674608E+02 0.  0.
         11    1    3    3    0    0 -0.38788133564E+02 -0.41684777622E+02 -0.12763357944E+02  0.58352748839E+02  0.51100000000E-03 0. -1.
         22    1    1    0    0    0  0.19811920994E+02  0.84749848532E+01  0.17953691244E+02  0.28047684593E+02  0.00000000000E+00 0. -1.
</event>
<event>
 5    1  0.1096978E-009  0.9118800E+02  0.7818608E-02  0.1130116E+00
         25   -1    0    0    0    0  0.00000000000E+00  0.00000000000E+00  0.99999998245E-14  0.12500000000E+03  0.12500000000E+03 0.  0.
        -11    1    3    3    0    0  0.13781789990E+02  0.41885119607E+02 -0.12424997323E+02  0.45811369097E+02  0.51100000000E-03 0.  1.
         23    2    1    0    0    0 -0.88650451524E+01  0.15715359399E+02  0.23286544162E+02  0.95541135704E+02  0.90886104142E+02 0.  0.
         11    1    3    3    0    0 -0.22646835143E+02 -0.26169760208E+02  0.35711541484E+02  0.49729766607E+02  0.51100000000E-03 0. -1.
         22    1    1    0    0    0  0.88650451524E+01 -0.15715359399E+02 -0.23286544162E+02  0.29458864296E+02  0.00000000000E+00 0. -1.
</event>
<event>
 5    1  0.1096978E-009  0.9118800E+02  0.7818608E-02  0.1130116E+00
         25   -1    0    0    0    0  0.00000000000E+00  0.00000000000E+00  0.99999998245E-14  0.12500000000E+03  0.12500000000E+03 0.  0.
        -11    1    3    3    0    0 -0.39044040880E+02 -0.42724244174E+02  0.14715079539E+02  0.59718772045E+02  0.51100000000E-03 0. -1.
         23    2    1    0    0    0 -0.76451801008E+01 -0.27596850636E+02  0.85662867802E+01  0.95109931198E+02  0.90291100334E+02 0.  0.
         11    1    3    3    0    0  0.31398860780E+02  0.15127393538E+02 -0.61487927588E+01  0.35391159152E+02  0.51100000000E-03 0.  1.
         22    1    1    0    0    0  0.76451801008E+01  0.27596850636E+02 -0.85662867802E+01  0.29890068802E+02  0.00000000000E+00 0. -1.
</event>
<event>
 5    1  0.1096978E-009  0.9118800E+02  0.7818608E-02  0.1130116E+00
         25   -1    0    0    0    0  0.00000000000E+00  0.00000000000E+00  0.99999998245E-14  0.12500000000E+03  0.12500000000E+03 0.  0.
        -11    1    3    3    0    0 -0.91936199099E+01  0.52331661290E+02  0.28787098907E+02  0.60430310972E+02  0.51100000000E-03 0.  1.
         23    2    1    0    0    0 -0.58936786280E+01  0.23871226795E+02  0.92574840742E+00  0.10039455494E+03  0.97332619070E+02 0.  0.
         11    1    3    3    0    0  0.32999412819E+01 -0.28460434495E+02 -0.27861350499E+02  0.39964243969E+02  0.51100000000E-03 0. -1.
         22    1    1    0    0    0  0.58936786280E+01 -0.23871226795E+02 -0.92574840742E+00  0.24605445060E+02  0.00000000000E+00 0.  1.
</event>
<event>
 5    1  0.1096978E-009  0.9118800E+02  0.7818608E-02  0.1130116E+00
         25   -1    0    0    0    0  0.00000000000E+00  0.00000000000E+00  0.99999998245E-14  0.12500000000E+03  0.12500000000E+03 0.  0.
        -11    1    3    3    0    0  0.33904206418E+02  0.10007401697E+02 -0.10570550335E+02  0.36896881117E+02  0.51100000000E-03 0.  1.
         23    2    1    0    0    0 -0.17208239930E+02  0.21924975034E+02  0.12777108922E+02  0.94339234124E+02  0.89217759056E+02 0.  0.
         11    1    3    3    0    0 -0.51112446348E+02  0.11917573337E+02  0.23347659257E+02  0.57442353007E+02  0.51100000000E-03 0. -1.
         22    1    1    0    0    0  0.17208239930E+02 -0.21924975034E+02 -0.12777108922E+02  0.30660765876E+02  0.00000000000E+00 0. -1.
</event>
<event>
 5    1  0.1096978E-009  0.9118800E+02  0.7818608E-02  0.1130116E+00
         25   -1    0    0    0    0  0.00000000000E+00  0.00000000000E+00  0.99999998245E-14  0.12500000000E+03  0.12500000000E+03 0.  0.
        -11    1    3    3    0    0 -0.34234365900E+02 -0.50009960604E+02  0.10292010737E+02  0.61472867621E+02  0.51100000000E-03 0.  1.
         23    2    1    0    0    0 -0.10113702787E+02 -0.28037907737E+02  0.20629028014E+01  0.95122469608E+02  0.90308456980E+02 0.  0.
         11    1    3    3    0    0  0.24120663114E+02  0.21972052867E+02 -0.82291079352E+01  0.33649601987E+02  0.51100000000E-03 0. -1.
         22    1    1    0    0    0  0.10113702787E+02  0.28037907737E+02 -0.20629028014E+01  0.29877530392E+02  0.00000000000E+00 0.  1.
</event>
<event>
 5    1  0.1096978E-009  0.9118800E+02  0.7818608E-02  0.1130116E+00
         25   -1    0    0    0    0  0.00000000000E+00  0.00000000000E+00  0.99999998245E-14  0.12500000000E+03  0.12500000000E+03 0.  0.
        -11    1    3    3    0    0  0.34323864490E+02 -0.28936129526E+02 -0.23726136202E+02  0.50777522634E+02  0.51100000000E-03 0. -1.
         23    2    1    0    0    0  0.12270614542E+02  0.72865818967E+01 -0.28173735413E+02  0.93418017414E+02  0.87917599793E+02 0.  0.
         11    1    3    3    0    0 -0.22053249948E+02  0.36222711422E+02 -0.44475992110E+01  0.42640494780E+02  0.51100000000E-03 0.  1.
         22    1    1    0    0    0 -0.12270614542E+02 -0.72865818967E+01  0.28173735413E+02  0.31581982586E+02  0.00000000000E+00 0. -1.
</event>
<event>
 5    1  0.1096978E-009  0.9118800E+02  0.7818608E-02  0.1130116E+00
         25   -1    0    0    0    0  0.00000000000E+00  0.00000000000E+00  0.99999998245E-14  0.12500000000E+03  0.12500000000E+03 0.  0.
        -11    1    3    3    0    0  0.29933014635E+02  0.11424028754E+02 -0.51358622061E+02  0.60532651176E+02  0.51100000000E-03 0.  1.
         23    2    1    0    0    0  0.13453576157E+02 -0.40077560714E+01 -0.96322125573E+01  0.10797530209E+03  0.10662469471E+03 0.  0.
         11    1    3    3    0    0 -0.16479438478E+02 -0.15431784825E+02  0.41726409504E+02  0.47442650915E+02  0.51100000000E-03 0. -1.
         22    1    1    0    0    0 -0.13453576157E+02  0.40077560714E+01  0.96322125573E+01  0.17024697909E+02  0.00000000000E+00 0.  1.
</event>
<event>
 5    1  0.1096978E-009  0.9118800E+02  0.7818608E-02  0.1130116E+00
         25   -1    0    0    0    0  0.00000000000E+00  0.00000000000E+00  0.99999998245E-14  0.12500000000E+03  0.12500000000E+03 0.  0.
        -11    1    3    3    0    0  0.30139848158E+02 -0.14637520948E+02  0.68049875402E+01  0.34190281107E+02  0.51100000000E-03 0.  1.
         23    2    1    0    0    0 -0.18720528315E+02  0.13531605228E+02 -0.17914213758E+02  0.95768483190E+02  0.91198249969E+02 0.  0.
         11    1    3    3    0    0 -0.48860376473E+02  0.28169126176E+02 -0.24719201298E+02  0.61578202083E+02  0.51100000000E-03 0. -1.
         22    1    1    0    0    0  0.18720528315E+02 -0.13531605228E+02  0.17914213758E+02  0.29231516810E+02  0.00000000000E+00 0. -1.
</event>
<event>
 5    1  0.1096978E-009  0.9118800E+02  0.7818608E-02  0.1130116E+00
         25   -1    0    0    0    0  0.00000000000E+00  0.00000000000E+00  0.99999998245E-14  0.12500000000E+03  0.12500000000E+03 0.  0.
        -11    1    3    3    0    0 -0.32683941262E+02  0.95656281593E+01  0.30427137531E+02  0.45667843797E+02  0.51100000000E-03 0. -1.
         23    2    1    0    0    0 -0.66437256989E+01  0.27155501649E+02 -0.85784143720E+01  0.95757059756E+02  0.91182591206E+02 0.  0.
         11    1    3    3    0    0  0.26040215563E+02  0.17589873489E+02 -0.39005551903E+02  0.50089215959E+02  0.51100000000E-03 0.  1.
         22    1    1    0    0    0  0.66437256989E+01 -0.27155501649E+02  0.85784143720E+01  0.29242940244E+02  0.00000000000E+00 0.  1.
</event>
<event>
 5    1  0.1096978E-009  0.9118800E+02  0.7818608E-02  0.1130116E+00
         25   -1    0    0    0    0  0.00000000000E+00  0.00000000000E+00  0.99999998245E-14  0.12500000000E+03  0.12500000000E+03 0.  0.
        -11    1    3    3    0    0  0.34358573115E+02 -0.22296290137E+02  0.12609681710E+02  0.42856040105E+02  0.51100000000E-03 0.  1.
         23    2    1    0    0    0  0.92999624798E+01  0.23121031103E+00 -0.27924329842E+02  0.95566839153E+02  0.90921448450E+02 0.  0.
         11    1    3    3    0    0 -0.25058610635E+02  0.22527500449E+02 -0.40534011552E+02  0.52710799047E+02  0.51100000000E-03 0. -1.
         22    1    1    0    0    0 -0.92999624798E+01 -0.23121031103E+00  0.27924329842E+02  0.29433160847E+02  0.00000000000E+00 0. -1.
</event>
<event>
 5    1  0.1096978E-009  0.9118800E+02  0.7818608E-02  0.1130116E+00
         25   -1    0    0    0    0  0.00000000000E+00  0.00000000000E+00  0.99999998245E-14  0.12500000000E+03  0.12500000000E+03 0.  0.
        -11    1    3    3    0    0 -0.14989728557E+01  0.33103877416E+02  0.30590536181E+02  0.45098719756E+02  0.51100000000E-03 0. -1.
         23    2    1    0    0    0 -0.20556997259E+02 -0.10604783144E+02  0.21045552640E+02  0.93727538508E+02  0.88356576592E+02 0.  0.
         11    1    3    3    0    0 -0.19058024403E+02 -0.43708660560E+02 -0.95449835409E+01  0.48628818751E+02  0.51100000000E-03 0.  1.
         22    1    1    0    0    0  0.20556997259E+02  0.10604783144E+02 -0.21045552640E+02  0.31272461492E+02  0.00000000000E+00 0. -1.
</event>
<event>
 5    1  0.1096978E-009  0.9118800E+02  0.7818608E-02  0.1130116E+00
         25   -1    0    0    0    0  0.00000000000E+00  0.00000000000E+00  0.99999998245E-14  0.12500000000E+03  0.12500000000E+03 0.  0.
        -11    1    3    3    0    0  0.17353022991E+02  0.23618369788E+02  0.23380288804E+02  0.37491235018E+02  0.51100000000E-03 0.  1.
         23    2    1    0    0    0  0.25237817563E+01 -0.19037534403E+02 -0.17952975348E+02  0.98711095224E+02  0.95146065636E+02 0.  0.
         11    1    3    3    0    0 -0.14829241235E+02 -0.42655904191E+02 -0.41333264151E+02  0.61219860206E+02  0.51100000000E-03 0. -1.
         22    1    1    0    0    0 -0.25237817563E+01  0.19037534403E+02  0.17952975348E+02  0.26288904776E+02  0.00000000000E+00 0. -1.
</event>
<event>
 5    1  0.1096978E-009  0.9118800E+02  0.7818608E-02  0.1130116E+00
         25   -1    0    0    0    0  0.00000000000E+00  0.00000000000E+00  0.99999998245E-14  0.12500000000E+03  0.12500000000E+03 0.  0.
        -11    1    3    3    0    0 -0.33389079176E+02 -0.15396578120E+02 -0.58362376721E+01  0.37228307730E+02  0.51100000000E-03 0.  1.
         23    2    1    0    0    0  0.24602801425E+02 -0.14172620054E+02 -0.87007893570E+01  0.95303792623E+02  0.90559086544E+02 0.  0.
         11    1    3    3    0    0  0.57991880601E+02  0.12239580662E+01 -0.28645516849E+01  0.58075484893E+02  0.51100000000E-03 0. -1.
         22    1    1    0    0    0 -0.24602801425E+02  0.14172620054E+02  0.87007893570E+01  0.29696207377E+02  0.00000000000E+00 0. -1.
</event>
<event>
 5    1  0.1096978E-009  0.9118800E+02  0.7818608E-02  0.1130116E+00
         25   -1    0    0    0    0  0.00000000000E+00  0.00000000000E+00  0.99999998245E-14  0.12500000000E+03  0.12500000000E+03 0.  0.
        -11    1    3    3    0    0 -0.19418085612E+02  0.54124463285E+02  0.10957729364E+02  0.58537094289E+02  0.51100000000E-03 0. -1.
         23    2    1    0    0    0 -0.20416780334E+02  0.20600624591E+02  0.15048742562E+02  0.92324392807E+02  0.86348701217E+02 0.  0.
         11    1    3    3    0    0 -0.99869472147E+00 -0.33523838694E+02  0.40910131976E+01  0.33787298518E+02  0.51100000000E-03 0.  1.
         22    1    1    0    0    0  0.20416780334E+02 -0.20600624591E+02 -0.15048742562E+02  0.32675607193E+02  0.00000000000E+00 0. -1.
</event>
<event>
 5    1  0.1096978E-009  0.9118800E+02  0.7818608E-02  0.1130116E+00
         25   -1    0    0    0    0  0.00000000000E+00  0.00000000000E+00  0.99999998245E-14  0.12500000000E+03  0.12500000000E+03 0.  0.
        -11    1    3    3    0    0  0.15938507426E+02 -0.36002804613E+02 -0.19773622638E+02  0.44059438393E+02  0.51100000000E-03 0. -1.
         23    2    1    0    0    0  0.25768064478E+02  0.12733224064E+02 -0.61998668549E+01  0.95596488458E+02  0.90962201570E+02 0.  0.
         11    1    3    3    0    0  0.98295570519E+01  0.48736028677E+02  0.13573755783E+02  0.51537050065E+02  0.51100000000E-03 0.  1.
         22    1    1    0    0    0 -0.25768064478E+02 -0.12733224064E+02  0.61998668549E+01  0.29403511542E+02  0.00000000000E+00 0.  1.
</event>
<event>
 5    1  0.1096978E-009  0.9118800E+02  0.7818608E-02  0.1130116E+00
         25   -1    0    0    0    0  0.00000000000E+00  0.00000000000E+00  0.99999998245E-14  0.12500000000E+03  0.12500000000E+03 0.  0.
        -11    1    3    3    0    0 -0.34555990048E+02  0.45336533102E+01 -0.18747864113E+02  0.39574649330E+02  0.51100000000E-03 0.  1.
         23    2    1    0    0    0 -0.49243073764E+01 -0.35865787638E+01  0.28457349058E+02  0.95897885545E+02  0.91375441920E+02 0.  0.
         11    1    3    3    0    0  0.29631682671E+02 -0.81202320740E+01  0.47205213171E+02  0.56323236215E+02  0.51100000000E-03 0. -1.
         22    1    1    0    0    0  0.49243073764E+01  0.35865787638E+01 -0.28457349058E+02  0.29102114455E+02  0.00000000000E+00 0. -1.
</event>
<event>
 5    1  0.1096978E-009  0.9118800E+02  0.7818608E-02  0.1130116E+00
         25   -1    0    0    0    0  0.00000000000E+00  0.00000000000E+00  0.99999998245E-14  0.12500000000E+03  0.12500000000E+03 0.  0.
        -11    1    3    3    0    0 -0.35874214214E+02  0.39820646133E+02  0.19756773500E+02  0.57122440453E+02  0.51100000000E-03 0.  1.
         23    2    1    0    0    0 -0.43642706187E+01  0.18234016224E+02  0.22849939145E+02  0.95442497997E+02  0.90750341593E+02 0.  0.
         11    1    3    3    0    0  0.31509943595E+02 -0.21586629909E+02  0.30931656454E+01  0.38320057544E+02  0.51100000000E-03 0. -1.
         22    1    1    0    0    0  0.43642706187E+01 -0.18234016224E+02 -0.22849939145E+02  0.29557502003E+02  0.00000000000E+00 0.  1.
</event>
<event>
 5    1  0.1096978E-009  0.9118800E+02  0.7818608E-02  0.1130116E+00
         25   -1    0    0    0    0  0.00000000000E+00  0.00000000000E+00  0.99999998245E-14  0.12500000000E+03  0.12500000000E+03 0.  0.
        -11    1    3    3    0    0  0.15207077177E+02  0.36320305991E+02  0.33652976936E+01  0.39518920183E+02  0.51100000000E-03 0.  1.
         23    2    1    0    0    0 -0.14506181478E+02  0.40757306841E+01 -0.27844909311E+02  0.93339616928E+02  0.87806060338E+02 0.  0.
         11    1    3    3    0    0 -0.29713258655E+02 -0.32244575307E+02 -0.31210207005E+02  0.53820696746E+02  0.51100000000E-03 0. -1.
         22    1    1    0    0    0  0.14506181478E+02 -0.40757306841E+01  0.27844909311E+02  0.31660383072E+02  0.00000000000E+00 0. -1.
</event>
<event>
 5    1  0.1096978E-009  0.9118800E+02  0.7818608E-02  0.1130116E+00
         25   -1    0    0    0    0  0.00000000000E+00  0.00000000000E+00  0.99999998245E-14  0.12500000000E+03  0.12500000000E+03 0.  0.
        -11    1    3    3    0    0 -0.19940333859E+02  0.34549738028E+02  0.10302982496E+02  0.41200154863E+02  0.51100000000E-03 0. -1.
         23    2    1    0    0    0 -0.68333944293E+01 -0.68182250377E+00 -0.28771243581E+02  0.95420537216E+02  0.90720087655E+02 0.  0.
         11    1    3    3    0    0  0.13106939429E+02 -0.35231560532E+02 -0.39074226077E+02  0.54220382353E+02  0.51100000000E-03 0.  1.
         22    1    1    0    0    0  0.68333944293E+01  0.68182250377E+00  0.28771243581E+02  0.29579462784E+02  0.00000000000E+00 0.  1.
</event>
<event>
 5    1  0.1096978E-009  0.9118800E+02  0.7818608E-02  0.1130116E+00
         25   -1    0    0    0    0  0.00000000000E+00  0.00000000000E+00  0.99999998245E-14  0.12500000000E+03  0.12500000000E+03 0.  0.
        -11    1    3    3    0    0  0.12105926063E+02  0.49287503822E+02 -0.95389037919E+01  0.51641089886E+02  0.51100000000E-03 0. -1.
         23    2    1    0    0    0 -0.16354975877E+02  0.14303969033E+02 -0.17076304336E+02  0.97365077604E+02  0.93360962940E+02 0.  0.
         11    1    3    3    0    0 -0.28460901940E+02 -0.34983534789E+02 -0.75374005444E+01  0.45723987718E+02  0.51100000000E-03 0.  1.
         22    1    1    0    0    0  0.16354975877E+02 -0.14303969033E+02  0.17076304336E+02  0.27634922396E+02  0.00000000000E+00 0. -1.
</event>
<event>
 5    1  0.1096978E-009  0.9118800E+02  0.7818608E-02  0.1130116E+00
         25   -1    0    0    0    0  0.00000000000E+00  0.00000000000E+00  0.99999998245E-14  0.12500000000E+03  0.12500000000E+03 0.  0.
        -11    1    3    3    0    0 -0.50267726646E+02  0.71331264788E+01 -0.22401451622E+02  0.55493701179E+02  0.51100000000E-03 0. -1.
         23    2    1    0    0    0 -0.24617597157E+02  0.12898479463E+02  0.83780146447E+01  0.95972633746E+02  0.91477638997E+02 0.  0.
         11    1    3    3    0    0  0.25650129489E+02  0.57653529840E+01  0.30779466267E+02  0.40478932567E+02  0.51100000000E-03 0.  1.
         22    1    1    0    0    0  0.24617597157E+02 -0.12898479463E+02 -0.83780146447E+01  0.29027366254E+02  0.00000000000E+00 0. -1.
</event>
<event>
 5    1  0.1096978E-009  0.9118800E+02  0.7818608E-02  0.1130116E+00
         25   -1    0    0    0    0  0.00000000000E+00  0.00000000000E+00  0.99999998245E-14  0.12500000000E+03  0.12500000000E+03 0.  0.
        -11    1    3    3    0    0 -0.16185550740E+02 -0.10377691454E+01  0.59433758088E+02  0.61606985142E+02  0.51100000000E-03 0.  1.
         23    2    1    0    0    0 -0.16625580716E+01 -0.45112134011E+01  0.30054614271E+02  0.94563262582E+02  0.89531087592E+02 0.  0.
         11    1    3    3    0    0  0.14522992669E+02 -0.34734442557E+01 -0.29379143817E+02  0.32956277440E+02  0.51100000000E-03 0. -1.
         22    1    1    0    0    0  0.16625580716E+01  0.45112134011E+01 -0.30054614271E+02  0.30436737418E+02  0.00000000000E+00 0.  1.
</event>
<event>
 5    1  0.1096978E-009  0.9118800E+02  0.7818608E-02  0.1130116E+00
         25   -1    0    0    0    0  0.00000000000E+00  0.00000000000E+00  0.99999998245E-14  0.12500000000E+03  0.12500000000E+03 0.  0.
        -11    1    3    3    0    0  0.69378564031E+01  0.42710998027E+02  0.32750873813E+02  0.54267697019E+02  0.51100000000E-03 0. -1.
         23    2    1    0    0    0  0.81083923027E+01  0.24427846453E+02 -0.72462255241E+01  0.98261011754E+02  0.94552910788E+02 0.  0.
         11    1    3    3    0    0  0.11705358996E+01 -0.18283151574E+02 -0.39997099337E+02  0.43993314735E+02  0.51100000000E-03 0.  1.
         22    1    1    0    0    0 -0.81083923027E+01 -0.24427846453E+02  0.72462255241E+01  0.26738988246E+02  0.00000000000E+00 0. -1.
</event>
<event>
 5    1  0.1096978E-009  0.9118800E+02  0.7818608E-02  0.1130116E+00
         25   -1    0    0    0    0  0.00000000000E+00  0.00000000000E+00  0.99999998245E-14  0.12500000000E+03  0.12500000000E+03 0.  0.
        -11    1    3    3    0    0  0.37734702828E+02  0.34851199900E+01  0.34895079483E+02  0.51514274053E+02  0.51100000000E-03 0.  1.
         23    2    1    0    0    0  0.26641466893E+02 -0.61533556402E+01 -0.77168500475E+01  0.96589063399E+02  0.92316119122E+02 0.  0.
         11    1    3    3    0    0 -0.11093235934E+02 -0.96384756303E+01 -0.42611929531E+02  0.45074789346E+02  0.51100000000E-03 0. -1.
         22    1    1    0    0    0 -0.26641466893E+02  0.61533556402E+01  0.77168500475E+01  0.28410936601E+02  0.00000000000E+00 0.  1.
</event>
<event>
 5    1  0.1096978E-009  0.9118800E+02  0.7818608E-02  0.1130116E+00
         25   -1    0    0    0    0  0.00000000000E+00  0.00000000000E+00  0.99999998245E-14  0.12500000000E+03  0.12500000000E+03 0.  0.
        -11    1    3    3    0    0 -0.24726640089E+02 -0.28400483119E+01  0.23902896585E+02  0.34508275383E+02  0.51100000000E-03 0. -1.
         23    2    1    0    0    0  0.10254851833E+02 -0.89381547545E-01 -0.26877307731E+02  0.96232663556E+02  0.91832270412E+02 0.  0.
         11    1    3    3    0    0  0.34981491922E+02  0.27506667643E+01 -0.50780204316E+02  0.61724388173E+02  0.51100000000E-03 0.  1.
         22    1    1    0    0    0 -0.10254851833E+02  0.89381547545E-01  0.26877307731E+02  0.28767336444E+02  0.00000000000E+00 0.  1.
</event>
<event>
 5    1  0.1096978E-009  0.9118800E+02  0.7818608E-02  0.1130116E+00
         25   -1    0    0    0    0  0.00000000000E+00  0.00000000000E+00  0.99999998245E-14  0.12500000000E+03  0.12500000000E+03 0.  0.
        -11    1    3    3    0    0  0.15471838296E+02 -0.29693369447E+02 -0.43575248531E+02  0.54953400751E+02  0.51100000000E-03 0.  1.
         23    2    1    0    0    0 -0.47930994066E+01  0.40595076962E+00 -0.31409876014E+02  0.93223925523E+02  0.87641208235E+02 0.  0.
         11    1    3    3    0    0 -0.20264937703E+02  0.30099320216E+02  0.12165372517E+02  0.38270524772E+02  0.51100000000E-03 0. -1.
         22    1    1    0    0    0  0.47930994066E+01 -0.40595076962E+00  0.31409876014E+02  0.31776074477E+02  0.00000000000E+00 0.  1.
</event>
<event>
 5    1  0.1096978E-009  0.9118800E+02  0.7818608E-02  0.1130116E+00
         25   -1    0    0    0    0  0.00000000000E+00  0.00000000000E+00  0.99999998245E-14  0.12500000000E+03  0.12500000000E+03 0.  0.
        -11    1    3    3    0    0 -0.27033034201E+02  0.46072275612E+02  0.25524050421E+02  0.59202336680E+02  0.51100000000E-03 0.  1.
         23    2    1    0    0    0 -0.93836649865E+00  0.28470300589E+02  0.72214618078E+01  0.95613131198E+02  0.90985069102E+02 0.  0.
         11    1    3    3    0    0  0.26094667703E+02 -0.17601975023E+02 -0.18302588614E+02  0.36410794518E+02  0.51100000000E-03 0. -1.
         22    1    1    0    0    0  0.93836649865E+00 -0.28470300589E+02 -0.72214618078E+01  0.29386868802E+02  0.00000000000E+00 0.  1.
</event>
<event>
 5    1  0.1096978E-009  0.9118800E+02  0.7818608E-02  0.1130116E+00
         25   -1    0    0    0    0  0.00000000000E+00  0.00000000000E+00  0.99999998245E-14  0.12500000000E+03  0.12500000000E+03 0.  0.
        -11    1    3    3    0    0  0.13844233323E+01 -0.36650396021E+02  0.18440584463E+02  0.41051471497E+02  0.51100000000E-03 0. -1.
         23    2    1    0    0    0  0.25212315391E+02 -0.33627786755E+01 -0.16339675871E+02  0.94768325627E+02  0.89816932740E+02 0.  0.
         11    1    3    3    0    0  0.23827892059E+02  0.33287617345E+02 -0.34780260334E+02  0.53716854130E+02  0.51100000000E-03 0.  1.
         22    1    1    0    0    0 -0.25212315391E+02  0.33627786755E+01  0.16339675871E+02  0.30231674373E+02  0.00000000000E+00 0.  1.
</event>
<event>
 5    1  0.1096978E-009  0.9118800E+02  0.7818608E-02  0.1130116E+00
         25   -1    0    0    0    0  0.00000000000E+00  0.00000000000E+00  0.99999998245E-14  0.12500000000E+03  0.12500000000E+03 0.  0.
        -11    1    3    3    0    0 -0.27533426467E+01  0.19407189856E+02  0.28622793756E+02  0.34691270321E+02  0.51100000000E-03 0.  1.
         23    2    1    0    0    0  0.11737102751E+02 -0.54120458816E+01 -0.25747805772E+02  0.96190291156E+02  0.91774575941E+02 0.  0.
         11    1    3    3    0    0  0.14490445398E+02 -0.24819235737E+02 -0.54370599528E+02  0.61499020835E+02  0.51100000000E-03 0. -1.
         22    1    1    0    0    0 -0.11737102751E+02  0.54120458816E+01  0.25747805772E+02  0.28809708844E+02  0.00000000000E+00 0. -1.
</event>
<event>
 5    1  0.1096978E-009  0.9118800E+02  0.7818608E-02  0.1130116E+00
         25   -1    0    0    0    0  0.00000000000E+00  0.00000000000E+00  0.99999998245E-14  0.12500000000E+03  0.12500000000E+03 0.  0.
        -11    1    3    3    0    0 -0.19805112333E+02  0.36305119906E+02 -0.11941458037E+02  0.43045355455E+02  0.51100000000E-03 0.  1.
         23    2    1    0    0    0  0.23845068812E+02  0.24486206462E+02 -0.13394582062E+02  0.88290649118E+02  0.80297336691E+02 0.  0.
         11    1    3    3    0    0  0.43650181145E+02 -0.11818913445E+02 -0.14531240258E+01  0.45245293663E+02  0.51100000000E-03 0. -1.
         22    1    1    0    0    0 -0.23845068812E+02 -0.24486206462E+02  0.13394582062E+02  0.36709350882E+02  0.00000000000E+00 0. -1.
</event>
<event>
 5    1  0.1096978E-009  0.9118800E+02  0.7818608E-02  0.1130116E+00
         25   -1    0    0    0    0  0.00000000000E+00  0.00000000000E+00  0.99999998245E-14  0.12500000000E+03  0.12500000000E+03 0.  0.
        -11    1    3    3    0    0  0.20230108884E+02  0.24556070202E+02  0.30804187366E+02  0.44284939299E+02  0.51100000000E-03 0.  1.
         23    2    1    0    0    0 -0.17202661617E+02  0.23100227403E+02 -0.46047944269E+01  0.95832274609E+02  0.91285643188E+02 0.  0.
         11    1    3    3    0    0 -0.37432770501E+02 -0.14558427986E+01 -0.35408981793E+02  0.51547335310E+02  0.51100000000E-03 0. -1.
         22    1    1    0    0    0  0.17202661617E+02 -0.23100227403E+02  0.46047944269E+01  0.29167725391E+02  0.00000000000E+00 0.  1.
</event>
<event>
 5    1  0.1096978E-009  0.9118800E+02  0.7818608E-02  0.1130116E+00
         25   -1    0    0    0    0  0.00000000000E+00  0.00000000000E+00  0.99999998245E-14  0.12500000000E+03  0.12500000000E+03 0.  0.
        -11    1    3    3    0    0 -0.12599099918E+02 -0.31173218096E+02  0.26791004117E+02  0.42991449697E+02  0.51100000000E-03 0. -1.
         23    2    1    0    0    0 -0.17027222132E+02 -0.79173838359E+01 -0.21306671602E+02  0.96599550794E+02  0.92330318415E+02 0.  0.
         11    1    3    3    0    0 -0.44281222139E+01  0.23255834260E+02 -0.48097675719E+02  0.53608101097E+02  0.51100000000E-03 0.  1.
         22    1    1    0    0    0  0.17027222132E+02  0.79173838359E+01  0.21306671602E+02  0.28400449206E+02  0.00000000000E+00 0.  1.
</event>
<event>
 5    1  0.1096978E-009  0.9118800E+02  0.7818608E-02  0.1130116E+00
         25   -1    0    0    0    0  0.00000000000E+00  0.00000000000E+00  0.99999998245E-14  0.12500000000E+03  0.12500000000E+03 0.  0.
        -11    1    3    3    0    0  0.34928658089E+00  0.35047950491E+02  0.22602222726E+02  0.41705411006E+02  0.51100000000E-03 0.  1.
         23    2    1    0    0    0 -0.27576038464E+02  0.32102638905E+01 -0.10356818479E+02  0.95368810678E+02  0.90648787469E+02 0.  0.
         11    1    3    3    0    0 -0.27925325045E+02 -0.31837686601E+02 -0.32959041206E+02  0.53663399672E+02  0.51100000000E-03 0. -1.
         22    1    1    0    0    0  0.27576038464E+02 -0.32102638905E+01  0.10356818479E+02  0.29631189322E+02  0.00000000000E+00 0. -1.
</event>
<event>
 5    1  0.1096978E-009  0.9118800E+02  0.7818608E-02  0.1130116E+00
         25   -1    0    0    0    0  0.00000000000E+00  0.00000000000E+00  0.99999998245E-14  0.12500000000E+03  0.12500000000E+03 0.  0.
        -11    1    3    3    0    0 -0.13673366583E+01 -0.82719551314E+00  0.50422618888E+02  0.50447937101E+02  0.51100000000E-03 0.  1.
         23    2    1    0    0    0  0.22006607762E+02 -0.13341141728E+02  0.13398060327E+02  0.95986470943E+02  0.91496544939E+02 0.  0.
         11    1    3    3    0    0  0.23373944421E+02 -0.12513946214E+02 -0.37024558561E+02  0.45538533842E+02  0.51100000000E-03 0. -1.
         22    1    1    0    0    0 -0.22006607762E+02  0.13341141728E+02 -0.13398060327E+02  0.29013529057E+02  0.00000000000E+00 0. -1.
</event>
<event>
 5    1  0.1096978E-009  0.9118800E+02  0.7818608E-02  0.1130116E+00
         25   -1    0    0    0    0  0.00000000000E+00  0.00000000000E+00  0.99999998245E-14  0.12500000000E+03  0.12500000000E+03 0.  0.
        -11    1    3    3    0    0 -0.84500132144E+00 -0.18981846230E+02  0.33404772580E+02  0.38430500191E+02  0.51100000000E-03 0.  1.
         23    2    1    0    0    0  0.54183440806E+00 -0.15921831236E+02 -0.24142059160E+02  0.96075316511E+02  0.91617842847E+02 0.  0.
         11    1    3    3    0    0  0.13868357295E+01  0.30600149942E+01 -0.57546831740E+02  0.57644816321E+02  0.51100000000E-03 0. -1.
         22    1    1    0    0    0 -0.54183440806E+00  0.15921831236E+02  0.24142059160E+02  0.28924683489E+02  0.00000000000E+00 0. -1.
</event>
<event>
 5    1  0.1096978E-009  0.9118800E+02  0.7818608E-02  0.1130116E+00
         25   -1    0    0    0    0  0.00000000000E+00  0.00000000000E+00  0.99999998245E-14  0.12500000000E+03  0.12500000000E+03 0.  0.
        -11    1    3    3    0    0  0.54835319952E+02 -0.24284699366E+02  0.30681068866E+01  0.60050580494E+02  0.51100000000E-03 0. -1.
         23    2    1    0    0    0  0.15238097366E+02 -0.10980451742E+02  0.11925310134E+02  0.10275178763E+03  0.10031424080E+03 0.  0.
         11    1    3    3    0    0 -0.39597222586E+02  0.13304247623E+02  0.88572032470E+01  0.42701207137E+02  0.51100000000E-03 0.  1.
         22    1    1    0    0    0 -0.15238097366E+02  0.10980451742E+02 -0.11925310134E+02  0.22248212369E+02  0.00000000000E+00 0. -1.
</event>
<event>
 5    1  0.1096978E-009  0.9118800E+02  0.7818608E-02  0.1130116E+00
         25   -1    0    0    0    0  0.00000000000E+00  0.00000000000E+00  0.99999998245E-14  0.12500000000E+03  0.12500000000E+03 0.  0.
        -11    1    3    3    0    0  0.24453143643E+02  0.42513103660E+02  0.56692196075E-01  0.49044096802E+02  0.51100000000E-03 0. -1.
         23    2    1    0    0    0 -0.67496232402E+01  0.16651275304E+02 -0.23111444428E+02  0.95726099565E+02  0.91140138749E+02 0.  0.
         11    1    3    3    0    0 -0.31202766883E+02 -0.25861828356E+02 -0.23168136624E+02  0.46682002763E+02  0.51100000000E-03 0.  1.
         22    1    1    0    0    0  0.67496232402E+01 -0.16651275304E+02  0.23111444428E+02  0.29273900435E+02  0.00000000000E+00 0. -1.
</event>
<event>
 5    1  0.1096978E-009  0.9118800E+02  0.7818608E-02  0.1130116E+00
         25   -1    0    0    0    0  0.00000000000E+00  0.00000000000E+00  0.99999998245E-14  0.12500000000E+03  0.12500000000E+03 0.  0.
        -11    1    3    3    0    0 -0.42107207197E+02  0.13466861314E+02 -0.80726794107E+00  0.44215663891E+02  0.51100000000E-03 0. -1.
         23    2    1    0    0    0 -0.50121472313E+01 -0.21502916919E+02 -0.16365742677E+02  0.97516648871E+02  0.93563680015E+02 0.  0.
         11    1    3    3    0    0  0.37095059965E+02 -0.34969778233E+02 -0.15558474736E+02  0.53300984980E+02  0.51100000000E-03 0.  1.
         22    1    1    0    0    0  0.50121472313E+01  0.21502916919E+02  0.16365742677E+02  0.27483351129E+02  0.00000000000E+00 0. -1.
</event>
<event>
 5    1  0.1096978E-009  0.9118800E+02  0.7818608E-02  0.1130116E+00
         25   -1    0    0    0    0  0.00000000000E+00  0.00000000000E+00  0.99999998245E-14  0.12500000000E+03  0.12500000000E+03 0.  0.
        -11    1    3    3    0    0 -0.30712031567E+02  0.22419872807E+02  0.85410761551E+01  0.38972163935E+02  0.51100000000E-03 0. -1.
         23    2    1    0    0    0  0.18570286188E+01 -0.33839177443E+01 -0.29464448262E+02  0.95283789508E+02  0.90531471749E+02 0.  0.
         11    1    3    3    0    0  0.32569060185E+02 -0.25803790551E+02 -0.38005524417E+02  0.56311625573E+02  0.51100000000E-03 0.  1.
         22    1    1    0    0    0 -0.18570286188E+01  0.33839177443E+01  0.29464448262E+02  0.29716210492E+02  0.00000000000E+00 0.  1.
</event>
<event>
 5    1  0.1096978E-009  0.9118800E+02  0.7818608E-02  0.1130116E+00
         25   -1    0    0    0    0  0.00000000000E+00  0.00000000000E+00  0.99999998245E-14  0.12500000000E+03  0.12500000000E+03 0.  0.
        -11    1    3    3    0    0  0.36232125156E+02 -0.14107310825E+02  0.40190345703E+02  0.55920005365E+02  0.51100000000E-03 0.  1.
         23    2    1    0    0    0  0.16229401932E+01 -0.72731857468E+01  0.32010648982E+02  0.92133378421E+02  0.86071741038E+02 0.  0.
         11    1    3    3    0    0 -0.34609184963E+02  0.68341250786E+01 -0.81796967216E+01  0.36213373056E+02  0.51100000000E-03 0. -1.
         22    1    1    0    0    0 -0.16229401932E+01  0.72731857468E+01 -0.32010648982E+02  0.32866621579E+02  0.00000000000E+00 0.  1.
</event>
<event>
 5    1  0.1096978E-009  0.9118800E+02  0.7818608E-02  0.1130116E+00
         25   -1    0    0    0    0  0.00000000000E+00  0.00000000000E+00  0.99999998245E-14  0.12500000000E+03  0.12500000000E+03 0.  0.
        -11    1    3    3    0    0 -0.47660852018E+01  0.46009517255E+02 -0.30521964047E+02  0.55418241904E+02  0.51100000000E-03 0.  1.
         23    2    1    0    0    0  0.17735616250E+02  0.22394941543E+02 -0.71330233773E+01  0.95555721898E+02  0.90906163017E+02 0.  0.
         11    1    3    3    0    0  0.22501701452E+02 -0.23614575713E+02  0.23388940670E+02  0.40137479993E+02  0.51100000000E-03 0. -1.
         22    1    1    0    0    0 -0.17735616250E+02 -0.22394941543E+02  0.71330233773E+01  0.29444278102E+02  0.00000000000E+00 0.  1.
</event>
<event>
 5    1  0.1096978E-009  0.9118800E+02  0.7818608E-02  0.1130116E+00
         25   -1    0    0    0    0  0.00000000000E+00  0.00000000000E+00  0.99999998245E-14  0.12500000000E+03  0.12500000000E+03 0.  0.
        -11    1    3    3    0    0 -0.13524718078E+02  0.25232384055E+01 -0.50899755401E+02  0.52726367515E+02  0.51100000000E-03 0. -1.
         23    2    1    0    0    0  0.12707836577E+02 -0.15078333817E+02 -0.19620891929E+02  0.97182295902E+02  0.93115916875E+02 0.  0.
         11    1    3    3    0    0  0.26232554655E+02 -0.17601572223E+02  0.31278863472E+02  0.44455928387E+02  0.51100000000E-03 0.  1.
         22    1    1    0    0    0 -0.12707836577E+02  0.15078333817E+02  0.19620891929E+02  0.27817704098E+02  0.00000000000E+00 0. -1.
</event>
<event>
 5    1  0.1096978E-009  0.9118800E+02  0.7818608E-02  0.1130116E+00
         25   -1    0    0    0    0  0.00000000000E+00  0.00000000000E+00  0.99999998245E-14  0.12500000000E+03  0.12500000000E+03 0.  0.
        -11    1    3    3    0    0 -0.10698728817E+02  0.28260549959E+02 -0.17836794354E+02  0.35089495798E+02  0.51100000000E-03 0.  1.
         23    2    1    0    0    0  0.83525139991E+01 -0.26899273351E+02  0.20934373463E+01  0.96756100183E+02  0.92542017732E+02 0.  0.
         11    1    3    3    0    0  0.19051242816E+02 -0.55159823311E+02  0.19930231700E+02  0.61666604385E+02  0.51100000000E-03 0. -1.
         22    1    1    0    0    0 -0.83525139991E+01  0.26899273351E+02 -0.20934373463E+01  0.28243899817E+02  0.00000000000E+00 0. -1.
</event>
<event>
 5    1  0.1096978E-009  0.9118800E+02  0.7818608E-02  0.1130116E+00
         25   -1    0    0    0    0  0.00000000000E+00  0.00000000000E+00  0.99999998245E-14  0.12500000000E+03  0.12500000000E+03 0.  0.
        -11    1    3    3    0    0 -0.75309810196E+01  0.64919856920E+01  0.60958638755E+02  0.61764206402E+02  0.51100000000E-03 0. -1.
         23    2    1    0    0    0 -0.22392456899E+01 -0.36681633785E+01  0.28340578172E+02  0.96335422296E+02  0.91972036913E+02 0.  0.
         11    1    3    3    0    0  0.52917353297E+01 -0.10160149070E+02 -0.32618060583E+02  0.34571215894E+02  0.51100000000E-03 0.  1.
         22    1    1    0    0    0  0.22392456899E+01  0.36681633785E+01 -0.28340578172E+02  0.28664577704E+02  0.00000000000E+00 0. -1.
</event>
<event>
 5    1  0.1096978E-009  0.9118800E+02  0.7818608E-02  0.1130116E+00
         25   -1    0    0    0    0  0.00000000000E+00  0.00000000000E+00  0.99999998245E-14  0.12500000000E+03  0.12500000000E+03 0.  0.
        -11    1    3    3    0    0  0.18725046619E+02 -0.27797697905E+01  0.30234115207E+02  0.35671504224E+02  0.51100000000E-03 0.  1.
         23    2    1    0    0    0 -0.25096711226E+02  0.32841734833E+01 -0.12138064348E+02  0.96929315720E+02  0.92775691482E+02 0.  0.
         11    1    3    3    0    0 -0.43821757846E+02  0.60639432738E+01 -0.42372179555E+02  0.61257811496E+02  0.51100000000E-03 0. -1.
         22    1    1    0    0    0  0.25096711226E+02 -0.32841734833E+01  0.12138064348E+02  0.28070684280E+02  0.00000000000E+00 0. -1.
</event>
<event>
 5    1  0.1096978E-009  0.9118800E+02  0.7818608E-02  0.1130116E+00
         25   -1    0    0    0    0  0.00000000000E+00  0.00000000000E+00  0.99999998245E-14  0.12500000000E+03  0.12500000000E+03 0.  0.
        -11    1    3    3    0    0  0.92197681774E+01 -0.11482309521E+02  0.47031912033E+02  0.49283347156E+02  0.51100000000E-03 0.  1.
         23    2    1    0    0    0 -0.22480127174E+02 -0.13174533274E+02  0.12798721443E+02  0.95970158193E+02  0.91474256205E+02 0.  0.
         11    1    3    3    0    0 -0.31699895352E+02 -0.16922237527E+01 -0.34233190590E+02  0.46686811036E+02  0.51100000000E-03 0. -1.
         22    1    1    0    0    0  0.22480127174E+02  0.13174533274E+02 -0.12798721443E+02  0.29029841807E+02  0.00000000000E+00 0. -1.
</event>
<event>
 5    1  0.1096978E-009  0.9118800E+02  0.7818608E-02  0.1130116E+00
         25   -1    0    0    0    0  0.00000000000E+00  0.00000000000E+00  0.99999998245E-14  0.12500000000E+03  0.12500000000E+03 0.  0.
        -11    1    3    3    0    0 -0.30541755557E+02 -0.13365725963E+02  0.32008776654E+02  0.46216915152E+02  0.51100000000E-03 0.  1.
         23    2    1    0    0    0 -0.16094456828E+02 -0.18781245177E+02 -0.15258213095E+02  0.95938345232E+02  0.91430773310E+02 0.  0.
         11    1    3    3    0    0  0.14447298729E+02 -0.54155192147E+01 -0.47266989750E+02  0.49721430080E+02  0.51100000000E-03 0. -1.
         22    1    1    0    0    0  0.16094456828E+02  0.18781245177E+02  0.15258213095E+02  0.29061654768E+02  0.00000000000E+00 0. -1.
</event>
<event>
 5    1  0.1096978E-009  0.9118800E+02  0.7818608E-02  0.1130116E+00
         25   -1    0    0    0    0  0.00000000000E+00  0.00000000000E+00  0.99999998245E-14  0.12500000000E+03  0.12500000000E+03 0.  0.
        -11    1    3    3    0    0  0.20467373635E+02 -0.39490352124E+02  0.16751451720E+02  0.47529069309E+02  0.51100000000E-03 0.  1.
         23    2    1    0    0    0  0.14523331442E+02  0.69140399964E+01  0.25233938814E+02  0.95075381819E+02  0.90243257115E+02 0.  0.
         11    1    3    3    0    0 -0.59440421939E+01  0.46404392121E+02  0.84824870939E+01  0.47546312509E+02  0.51100000000E-03 0. -1.
         22    1    1    0    0    0 -0.14523331442E+02 -0.69140399964E+01 -0.25233938814E+02  0.29924618181E+02  0.00000000000E+00 0.  1.
</event>
<event>
 5    1  0.1096978E-009  0.9118800E+02  0.7818608E-02  0.1130116E+00
         25   -1    0    0    0    0  0.00000000000E+00  0.00000000000E+00  0.99999998245E-14  0.12500000000E+03  0.12500000000E+03 0.  0.
        -11    1    3    3    0    0  0.36727369474E+02 -0.36935123813E+02  0.61912411209E+01  0.52454118107E+02  0.51100000000E-03 0.  1.
         23    2    1    0    0    0  0.33499443170E+01 -0.25948455012E+02 -0.16299369441E+02  0.94174460449E+02  0.88986600746E+02 0.  0.
         11    1    3    3    0    0 -0.33377425157E+02  0.10986668801E+02 -0.22490610562E+02  0.41720342342E+02  0.51100000000E-03 0. -1.
         22    1    1    0    0    0 -0.33499443170E+01  0.25948455012E+02  0.16299369441E+02  0.30825539551E+02  0.00000000000E+00 0.  1.
</event>
<event>
 5    1  0.1096978E-009  0.9118800E+02  0.7818608E-02  0.1130116E+00
         25   -1    0    0    0    0  0.00000000000E+00  0.00000000000E+00  0.99999998245E-14  0.12500000000E+03  0.12500000000E+03 0.  0.
        -11    1    3    3    0    0  0.33424779042E+02  0.33013425333E+02  0.37526923857E+02  0.60127964548E+02  0.51100000000E-03 0.  1.
         23    2    1    0    0    0  0.95841057769E+01  0.93053931870E+01  0.26172454551E+02  0.95615602726E+02  0.90988464552E+02 0.  0.
         11    1    3    3    0    0 -0.23840673265E+02 -0.23708032146E+02 -0.11354469306E+02  0.35487638178E+02  0.51100000000E-03 0. -1.
         22    1    1    0    0    0 -0.95841057769E+01 -0.93053931870E+01 -0.26172454551E+02  0.29384397274E+02  0.00000000000E+00 0.  1.
</event>
<event>
 5    1  0.1096978E-009  0.9118800E+02  0.7818608E-02  0.1130116E+00
         25   -1    0    0    0    0  0.00000000000E+00  0.00000000000E+00  0.99999998245E-14  0.12500000000E+03  0.12500000000E+03 0.  0.
        -11    1    3    3    0    0  0.14002598901E+02  0.44961185894E+02  0.36516940785E+02  0.59590838034E+02  0.51100000000E-03 0.  1.
         23    2    1    0    0    0  0.39515340784E+01  0.18551329958E+02  0.31411275690E+02  0.88306203449E+02  0.80321546688E+02 0.  0.
         11    1    3    3    0    0 -0.10051064823E+02 -0.26409855936E+02 -0.51056650946E+01  0.28715365416E+02  0.51100000000E-03 0. -1.
         22    1    1    0    0    0 -0.39515340784E+01 -0.18551329958E+02 -0.31411275690E+02  0.36693796551E+02  0.00000000000E+00 0.  1.
</event>
<event>
 5    1  0.1096978E-009  0.9118800E+02  0.7818608E-02  0.1130116E+00
         25   -1    0    0    0    0  0.00000000000E+00  0.00000000000E+00  0.99999998245E-14  0.12500000000E+03  0.12500000000E+03 0.  0.
        -11    1    3    3    0    0 -0.14721479527E+02  0.12532065282E+02  0.44381032570E+02  0.48409200282E+02  0.51100000000E-03 0.  1.
         23    2    1    0    0    0 -0.31440401517E+02 -0.71038119505E+00  0.50529934247E+01  0.93148214626E+02  0.87533157469E+02 0.  0.
         11    1    3    3    0    0 -0.16718921989E+02 -0.13242446477E+02 -0.39328039145E+02  0.44739014344E+02  0.51100000000E-03 0. -1.
         22    1    1    0    0    0  0.31440401517E+02  0.71038119505E+00 -0.50529934247E+01  0.31851785374E+02  0.00000000000E+00 0.  1.
</event>
<event>
 5    1  0.1096978E-009  0.9118800E+02  0.7818608E-02  0.1130116E+00
         25   -1    0    0    0    0  0.00000000000E+00  0.00000000000E+00  0.99999998245E-14  0.12500000000E+03  0.12500000000E+03 0.  0.
        -11    1    3    3    0    0  0.50925373717E+02  0.27013905627E+01 -0.99532195450E+00  0.51006684515E+02  0.51100000000E-03 0.  1.
         23    2    1    0    0    0  0.14381291207E+02  0.14241191427E+02  0.21522933945E+02  0.95455630729E+02  0.90768428885E+02 0.  0.
         11    1    3    3    0    0 -0.36544082510E+02  0.11539800864E+02  0.22518255899E+02  0.44448946213E+02  0.51100000000E-03 0. -1.
         22    1    1    0    0    0 -0.14381291207E+02 -0.14241191427E+02 -0.21522933945E+02  0.29544369271E+02  0.00000000000E+00 0.  1.
</event>
<event>
 5    1  0.1096978E-009  0.9118800E+02  0.7818608E-02  0.1130116E+00
         25   -1    0    0    0    0  0.00000000000E+00  0.00000000000E+00  0.99999998245E-14  0.12500000000E+03  0.12500000000E+03 0.  0.
        -11    1    3    3    0    0 -0.61801240641E+01 -0.10701461430E+02  0.59060990628E+02  0.60340001860E+02  0.51100000000E-03 0.  1.
         23    2    1    0    0    0 -0.48363018268E+00  0.62950656438E+01  0.28836173713E+02  0.95480740795E+02  0.90803002146E+02 0.  0.
         11    1    3    3    0    0  0.56964938814E+01  0.16996527074E+02 -0.30224816915E+02  0.35140738935E+02  0.51100000000E-03 0. -1.
         22    1    1    0    0    0  0.48363018268E+00 -0.62950656438E+01 -0.28836173713E+02  0.29519259205E+02  0.00000000000E+00 0.  1.
</event>
<event>
 5    1  0.1096978E-009  0.9118800E+02  0.7818608E-02  0.1130116E+00
         25   -1    0    0    0    0  0.00000000000E+00  0.00000000000E+00  0.99999998245E-14  0.12500000000E+03  0.12500000000E+03 0.  0.
        -11    1    3    3    0    0 -0.78050614935E+01  0.44809779455E+02 -0.26308117078E+02  0.52544765145E+02  0.51100000000E-03 0.  1.
         23    2    1    0    0    0  0.50042045422E+01  0.46500961017E+01 -0.29405510544E+02  0.94811434165E+02  0.89876907719E+02 0.  0.
         11    1    3    3    0    0  0.12809266036E+02 -0.40159683354E+02 -0.30973934661E+01  0.42266669019E+02  0.51100000000E-03 0. -1.
         22    1    1    0    0    0 -0.50042045422E+01 -0.46500961017E+01  0.29405510544E+02  0.30188565835E+02  0.00000000000E+00 0.  1.
</event>
<event>
 5    1  0.1096978E-009  0.9118800E+02  0.7818608E-02  0.1130116E+00
         25   -1    0    0    0    0  0.00000000000E+00  0.00000000000E+00  0.99999998245E-14  0.12500000000E+03  0.12500000000E+03 0.  0.
        -11    1    3    3    0    0 -0.19583712989E+02  0.19511210638E+02 -0.25688633238E+02  0.37737448680E+02  0.51100000000E-03 0.  1.
         23    2    1    0    0    0  0.28642360316E+02 -0.52745022673E+01 -0.75518820095E+01  0.94912858219E+02  0.90017856867E+02 0.  0.
         11    1    3    3    0    0  0.48226073305E+02 -0.24785712905E+02  0.18136751228E+02  0.57175409540E+02  0.51100000000E-03 0. -1.
         22    1    1    0    0    0 -0.28642360316E+02  0.52745022673E+01  0.75518820095E+01  0.30087141781E+02  0.00000000000E+00 0. -1.
</event>
<event>
 5    1  0.1096978E-009  0.9118800E+02  0.7818608E-02  0.1130116E+00
         25   -1    0    0    0    0  0.00000000000E+00  0.00000000000E+00  0.99999998245E-14  0.12500000000E+03  0.12500000000E+03 0.  0.
        -11    1    3    3    0    0 -0.18872553854E+02 -0.65391032150E+01 -0.22324516254E+02  0.29955253063E+02  0.51100000000E-03 0.  1.
         23    2    1    0    0    0  0.35890780201E+02  0.23463153116E-01 -0.98177310838E+00  0.89095786704E+02  0.81541073552E+02 0.  0.
         11    1    3    3    0    0  0.54763334055E+02  0.65625663682E+01  0.21342743146E+02  0.59140533641E+02  0.51100000000E-03 0. -1.
         22    1    1    0    0    0 -0.35890780201E+02 -0.23463153116E-01  0.98177310838E+00  0.35904213296E+02  0.00000000000E+00 0. -1.
</event>
<event>
 5    1  0.1096978E-009  0.9118800E+02  0.7818608E-02  0.1130116E+00
         25   -1    0    0    0    0  0.00000000000E+00  0.00000000000E+00  0.99999998245E-14  0.12500000000E+03  0.12500000000E+03 0.  0.
        -11    1    3    3    0    0 -0.45471583960E+02 -0.77393242361E+00 -0.39247160169E+02  0.60071653055E+02  0.51100000000E-03 0. -1.
         23    2    1    0    0    0 -0.23389659956E+02 -0.11394759595E+02 -0.13227258974E+02  0.95813065953E+02  0.91259336445E+02 0.  0.
         11    1    3    3    0    0  0.22081924004E+02 -0.10620827171E+02  0.26019901194E+02  0.35741412898E+02  0.51100000000E-03 0.  1.
         22    1    1    0    0    0  0.23389659956E+02  0.11394759595E+02  0.13227258974E+02  0.29186934047E+02  0.00000000000E+00 0. -1.
</event>
<event>
 5    1  0.1096978E-009  0.9118800E+02  0.7818608E-02  0.1130116E+00
         25   -1    0    0    0    0  0.00000000000E+00  0.00000000000E+00  0.99999998245E-14  0.12500000000E+03  0.12500000000E+03 0.  0.
        -11    1    3    3    0    0 -0.96234129607E-01  0.26259068317E+02  0.28584410986E+02  0.38815157884E+02  0.51100000000E-03 0.  1.
         23    2    1    0    0    0  0.53128089715E+01 -0.26681860880E+02  0.37642800022E+01  0.97535159875E+02  0.93588407235E+02 0.  0.
         11    1    3    3    0    0  0.54090431011E+01 -0.52940929197E+02 -0.24820130983E+02  0.58720001991E+02  0.51100000000E-03 0. -1.
         22    1    1    0    0    0 -0.53128089715E+01  0.26681860880E+02 -0.37642800022E+01  0.27464840125E+02  0.00000000000E+00 0. -1.
</event>
<event>
 5    1  0.1096978E-009  0.9118800E+02  0.7818608E-02  0.1130116E+00
         25   -1    0    0    0    0  0.00000000000E+00  0.00000000000E+00  0.99999998245E-14  0.12500000000E+03  0.12500000000E+03 0.  0.
        -11    1    3    3    0    0 -0.27672916580E+02 -0.55942251257E+00 -0.25599244459E+02  0.37701784875E+02  0.51100000000E-03 0. -1.
         23    2    1    0    0    0  0.25706404437E+02 -0.11493256532E+02 -0.14572569843E+02  0.93293944322E+02  0.87741017093E+02 0.  0.
         11    1    3    3    0    0  0.53379321018E+02 -0.10933834019E+02  0.11026674616E+02  0.55592159447E+02  0.51100000000E-03 0.  1.
         22    1    1    0    0    0 -0.25706404437E+02  0.11493256532E+02  0.14572569843E+02  0.31706055678E+02  0.00000000000E+00 0.  1.
</event>
<event>
 5    1  0.1096978E-009  0.9118800E+02  0.7818608E-02  0.1130116E+00
         25   -1    0    0    0    0  0.00000000000E+00  0.00000000000E+00  0.99999998245E-14  0.12500000000E+03  0.12500000000E+03 0.  0.
        -11    1    3    3    0    0  0.30799102246E+02 -0.45867096159E+01  0.20635091886E+02  0.37355449691E+02  0.51100000000E-03 0. -1.
         23    2    1    0    0    0 -0.21786100121E+02 -0.20657187873E+02  0.46374216510E+01  0.94621401466E+02  0.89612222193E+02 0.  0.
         11    1    3    3    0    0 -0.52585202367E+02 -0.16070478258E+02 -0.15997670235E+02  0.57265951774E+02  0.51100000000E-03 0.  1.
         22    1    1    0    0    0  0.21786100121E+02  0.20657187873E+02 -0.46374216510E+01  0.30378598534E+02  0.00000000000E+00 0.  1.
</event>
<event>
 5    1  0.1096978E-009  0.9118800E+02  0.7818608E-02  0.1130116E+00
         25   -1    0    0    0    0  0.00000000000E+00  0.00000000000E+00  0.99999998245E-14  0.12500000000E+03  0.12500000000E+03 0.  0.
        -11    1    3    3    0    0 -0.48733915090E+02  0.54089160744E+01 -0.29336533836E+02  0.57139155321E+02  0.51100000000E-03 0. -1.
         23    2    1    0    0    0 -0.10780297391E+02  0.40218137372E+01 -0.27531379591E+02  0.95160987620E+02  0.90361755766E+02 0.  0.
         11    1    3    3    0    0  0.37953617698E+02 -0.13871023372E+01  0.18051542447E+01  0.38021832299E+02  0.51100000000E-03 0.  1.
         22    1    1    0    0    0  0.10780297391E+02 -0.40218137372E+01  0.27531379591E+02  0.29839012380E+02  0.00000000000E+00 0. -1.
</event>
<event>
 5    1  0.1096978E-009  0.9118800E+02  0.7818608E-02  0.1130116E+00
         25   -1    0    0    0    0  0.00000000000E+00  0.00000000000E+00  0.99999998245E-14  0.12500000000E+03  0.12500000000E+03 0.  0.
        -11    1    3    3    0    0 -0.56743440639E+02  0.12359919188E+02 -0.11201930438E+02  0.59144474836E+02  0.51100000000E-03 0. -1.
         23    2    1    0    0    0 -0.24921958464E+02  0.12279980951E+02  0.77167282359E+01  0.96165128048E+02  0.91740296554E+02 0.  0.
         11    1    3    3    0    0  0.31821482175E+02 -0.79938236754E-01  0.18918658674E+02  0.37020653211E+02  0.51100000000E-03 0.  1.
         22    1    1    0    0    0  0.24921958464E+02 -0.12279980951E+02 -0.77167282359E+01  0.28834871952E+02  0.00000000000E+00 0. -1.
</event>
<event>
 5    1  0.1096978E-009  0.9118800E+02  0.7818608E-02  0.1130116E+00
         25   -1    0    0    0    0  0.00000000000E+00  0.00000000000E+00  0.99999998245E-14  0.12500000000E+03  0.12500000000E+03 0.  0.
        -11    1    3    3    0    0  0.73333411391E+01  0.21560318443E+02  0.55699083689E+02  0.60174854779E+02  0.51100000000E-03 0.  1.
         23    2    1    0    0    0 -0.74536752974E+01  0.67503383382E+01  0.30240358258E+02  0.93131463625E+02  0.87509233263E+02 0.  0.
         11    1    3    3    0    0 -0.14787016436E+02 -0.14809980105E+02 -0.25458725431E+02  0.32956608846E+02  0.51100000000E-03 0. -1.
         22    1    1    0    0    0  0.74536752974E+01 -0.67503383382E+01 -0.30240358258E+02  0.31868536375E+02  0.00000000000E+00 0.  1.
</event>
<event>
 5    1  0.1096978E-009  0.9118800E+02  0.7818608E-02  0.1130116E+00
         25   -1    0    0    0    0  0.00000000000E+00  0.00000000000E+00  0.99999998245E-14  0.12500000000E+03  0.12500000000E+03 0.  0.
        -11    1    3    3    0    0 -0.10782498585E+02  0.11156572056E+02  0.35463790369E+02  0.38709324502E+02  0.51100000000E-03 0. -1.
         23    2    1    0    0    0 -0.13595517240E+02  0.33551788569E+01 -0.23170199980E+02  0.97926886376E+02  0.94110156699E+02 0.  0.
         11    1    3    3    0    0 -0.28130186548E+01 -0.78013931992E+01 -0.58633990349E+02  0.59217561874E+02  0.51100000000E-03 0.  1.
         22    1    1    0    0    0  0.13595517240E+02 -0.33551788569E+01  0.23170199980E+02  0.27073113624E+02  0.00000000000E+00 0.  1.
</event>
<event>
 5    1  0.1096978E-009  0.9118800E+02  0.7818608E-02  0.1130116E+00
         25   -1    0    0    0    0  0.00000000000E+00  0.00000000000E+00  0.99999998245E-14  0.12500000000E+03  0.12500000000E+03 0.  0.
        -11    1    3    3    0    0 -0.46411756477E+02  0.29287666366E+02  0.57305011542E+01  0.55178412302E+02  0.51100000000E-03 0. -1.
         23    2    1    0    0    0 -0.22053675842E+02  0.58138705505E+01 -0.17532052851E+02  0.96233029598E+02  0.91832768659E+02 0.  0.
         11    1    3    3    0    0  0.24358080634E+02 -0.23473795816E+02 -0.23262554005E+02  0.41054617296E+02  0.51100000000E-03 0.  1.
         22    1    1    0    0    0  0.22053675842E+02 -0.58138705505E+01  0.17532052851E+02  0.28766970402E+02  0.00000000000E+00 0. -1.
</event>
<event>
 5    1  0.1096978E-009  0.9118800E+02  0.7818608E-02  0.1130116E+00
         25   -1    0    0    0    0  0.00000000000E+00  0.00000000000E+00  0.99999998245E-14  0.12500000000E+03  0.12500000000E+03 0.  0.
        -11    1    3    3    0    0  0.17940181996E+02 -0.45336907609E+02  0.77742365339E+01  0.49373313394E+02  0.51100000000E-03 0. -1.
         23    2    1    0    0    0  0.26927315693E+02 -0.70917475826E+00  0.12806034129E+02  0.95174209660E+02  0.90380044341E+02 0.  0.
         11    1    3    3    0    0  0.89871336978E+01  0.44627732851E+02  0.50317975947E+01  0.45800896266E+02  0.51100000000E-03 0.  1.
         22    1    1    0    0    0 -0.26927315693E+02  0.70917475826E+00 -0.12806034129E+02  0.29825790340E+02  0.00000000000E+00 0. -1.
</event>
<event>
 5    1  0.1096978E-009  0.9118800E+02  0.7818608E-02  0.1130116E+00
         25   -1    0    0    0    0  0.00000000000E+00  0.00000000000E+00  0.99999998245E-14  0.12500000000E+03  0.12500000000E+03 0.  0.
        -11    1    3    3    0    0  0.26957776557E+02 -0.53808642258E+02  0.15961394670E+02  0.62264418560E+02  0.51100000000E-03 0. -1.
         23    2    1    0    0    0  0.13457969857E+02 -0.28988402511E+02  0.46285515775E+01  0.92706534368E+02  0.86900135743E+02 0.  0.
         11    1    3    3    0    0 -0.13499806699E+02  0.24820239748E+02 -0.11332843093E+02  0.30442115808E+02  0.51100000000E-03 0.  1.
         22    1    1    0    0    0 -0.13457969857E+02  0.28988402511E+02 -0.46285515775E+01  0.32293465632E+02  0.00000000000E+00 0. -1.
</event>
<event>
 5    1  0.1096978E-009  0.9118800E+02  0.7818608E-02  0.1130116E+00
         25   -1    0    0    0    0  0.00000000000E+00  0.00000000000E+00  0.99999998245E-14  0.12500000000E+03  0.12500000000E+03 0.  0.
        -11    1    3    3    0    0  0.27077692183E+02  0.34498704508E+01 -0.16643772013E+02  0.31970582841E+02  0.51100000000E-03 0. -1.
         23    2    1    0    0    0 -0.27137341703E+02 -0.28826752627E+01  0.13745660485E+02  0.94443686192E+02  0.89363983505E+02 0.  0.
         11    1    3    3    0    0 -0.54215033886E+02 -0.63325457135E+01  0.30389432499E+02  0.62473103351E+02  0.51100000000E-03 0.  1.
         22    1    1    0    0    0  0.27137341703E+02  0.28826752627E+01 -0.13745660485E+02  0.30556313808E+02  0.00000000000E+00 0.  1.
</event>
<event>
 5    1  0.1096978E-009  0.9118800E+02  0.7818608E-02  0.1130116E+00
         25   -1    0    0    0    0  0.00000000000E+00  0.00000000000E+00  0.99999998245E-14  0.12500000000E+03  0.12500000000E+03 0.  0.
        -11    1    3    3    0    0  0.54739117491E+01 -0.31388963622E+02  0.34940906748E+02  0.47287394851E+02  0.51100000000E-03 0.  1.
         23    2    1    0    0    0  0.11097954234E+01 -0.27070591224E+02 -0.12527075951E+02  0.95150775772E+02  0.90347628320E+02 0.  0.
         11    1    3    3    0    0 -0.43641163257E+01  0.43183723984E+01 -0.47467982699E+02  0.47863380922E+02  0.51100000000E-03 0. -1.
         22    1    1    0    0    0 -0.11097954234E+01  0.27070591224E+02  0.12527075951E+02  0.29849224228E+02  0.00000000000E+00 0. -1.
</event>
<event>
 5    1  0.1096978E-009  0.9118800E+02  0.7818608E-02  0.1130116E+00
         25   -1    0    0    0    0  0.00000000000E+00  0.00000000000E+00  0.99999998245E-14  0.12500000000E+03  0.12500000000E+03 0.  0.
        -11    1    3    3    0    0 -0.20006086003E+02 -0.67742599605E+01 -0.83832357233E+01  0.22724715986E+02  0.51100000000E-03 0.  1.
         23    2    1    0    0    0 -0.24950083540E+02  0.41367988928E+02  0.11975816715E+02  0.75228146884E+02  0.56409544592E+02 0.  0.
         11    1    3    3    0    0 -0.49439975367E+01  0.48142248888E+02  0.20359052439E+02  0.52503430899E+02  0.51100000000E-03 0. -1.
         22    1    1    0    0    0  0.24950083540E+02 -0.41367988928E+02 -0.11975816715E+02  0.49771853116E+02  0.00000000000E+00 0. -1.
</event>
<event>
 5    1  0.1096978E-009  0.9118800E+02  0.7818608E-02  0.1130116E+00
         25   -1    0    0    0    0  0.00000000000E+00  0.00000000000E+00  0.99999998245E-14  0.12500000000E+03  0.12500000000E+03 0.  0.
        -11    1    3    3    0    0 -0.75552482754E+01  0.20754601336E+02  0.22639337587E+02  0.31628703100E+02  0.51100000000E-03 0.  1.
         23    2    1    0    0    0 -0.12640176378E+02 -0.23915267367E+01 -0.31634000877E+02  0.90850278618E+02  0.84187704889E+02 0.  0.
         11    1    3    3    0    0 -0.50849281022E+01 -0.23146128073E+02 -0.54273338464E+02  0.59221575518E+02  0.51100000000E-03 0. -1.
         22    1    1    0    0    0  0.12640176378E+02  0.23915267367E+01  0.31634000877E+02  0.34149721382E+02  0.00000000000E+00 0. -1.
</event>
<event>
 5    1  0.1096978E-009  0.9118800E+02  0.7818608E-02  0.1130116E+00
         25   -1    0    0    0    0  0.00000000000E+00  0.00000000000E+00  0.99999998245E-14  0.12500000000E+03  0.12500000000E+03 0.  0.
        -11    1    3    3    0    0 -0.23248899117E+02  0.11909499311E+02  0.22961635420E+02  0.34779076834E+02  0.51100000000E-03 0.  1.
         23    2    1    0    0    0  0.55271564211E+01 -0.21086690194E+02 -0.19487315957E+02  0.95760413056E+02  0.91187188048E+02 0.  0.
         11    1    3    3    0    0  0.28776055538E+02 -0.32996189504E+02 -0.42448951377E+02  0.60981336222E+02  0.51100000000E-03 0. -1.
         22    1    1    0    0    0 -0.55271564211E+01  0.21086690194E+02  0.19487315957E+02  0.29239586944E+02  0.00000000000E+00 0. -1.
</event>
<event>
 5    1  0.1096978E-009  0.9118800E+02  0.7818608E-02  0.1130116E+00
         25   -1    0    0    0    0  0.00000000000E+00  0.00000000000E+00  0.99999998245E-14  0.12500000000E+03  0.12500000000E+03 0.  0.
        -11    1    3    3    0    0  0.31631287661E+02 -0.11787314484E+02 -0.85414664420E+00  0.33766976598E+02  0.51100000000E-03 0. -1.
         23    2    1    0    0    0 -0.26023851366E+02  0.93649995276E+01  0.88915100378E+01  0.95948270157E+02  0.91444341210E+02 0.  0.
         11    1    3    3    0    0 -0.57655139027E+02  0.21152314012E+02  0.97456566820E+01  0.62181293559E+02  0.51100000000E-03 0.  1.
         22    1    1    0    0    0  0.26023851366E+02 -0.93649995276E+01 -0.88915100378E+01  0.29051729843E+02  0.00000000000E+00 0.  1.
</event>
<event>
 5    1  0.1096978E-009  0.9118800E+02  0.7818608E-02  0.1130116E+00
         25   -1    0    0    0    0  0.00000000000E+00  0.00000000000E+00  0.99999998245E-14  0.12500000000E+03  0.12500000000E+03 0.  0.
        -11    1    3    3    0    0 -0.16524737451E+02  0.28071124073E+02  0.55307870739E+01  0.33040044801E+02  0.51100000000E-03 0. -1.
         23    2    1    0    0    0  0.19049512858E+02 -0.22792907828E+02  0.93098115059E+00  0.95280186520E+02  0.90526496839E+02 0.  0.
         11    1    3    3    0    0  0.35574250309E+02 -0.50864031901E+02 -0.45998059233E+01  0.62240141718E+02  0.51100000000E-03 0.  1.
         22    1    1    0    0    0 -0.19049512858E+02  0.22792907828E+02 -0.93098115059E+00  0.29719813480E+02  0.00000000000E+00 0.  1.
</event>
<event>
 5    1  0.1096978E-009  0.9118800E+02  0.7818608E-02  0.1130116E+00
         25   -1    0    0    0    0  0.00000000000E+00  0.00000000000E+00  0.99999998245E-14  0.12500000000E+03  0.12500000000E+03 0.  0.
        -11    1    3    3    0    0  0.25309226389E+02  0.53162935395E+02  0.98670605184E+01  0.59701034528E+02  0.51100000000E-03 0.  1.
         23    2    1    0    0    0  0.17709623491E+02  0.18952880795E+02  0.14870785387E+02  0.95100456314E+02  0.90277982246E+02 0.  0.
         11    1    3    3    0    0 -0.75996028982E+01 -0.34210054600E+02  0.50037248691E+01  0.35399421786E+02  0.51100000000E-03 0. -1.
         22    1    1    0    0    0 -0.17709623491E+02 -0.18952880795E+02 -0.14870785387E+02  0.29899543686E+02  0.00000000000E+00 0.  1.
</event>
<event>
 5    1  0.1096978E-009  0.9118800E+02  0.7818608E-02  0.1130116E+00
         25   -1    0    0    0    0  0.00000000000E+00  0.00000000000E+00  0.99999998245E-14  0.12500000000E+03  0.12500000000E+03 0.  0.
        -11    1    3    3    0    0 -0.21923459174E+01  0.18116412513E+02 -0.31464635150E+02  0.36373534999E+02  0.51100000000E-03 0.  1.
         23    2    1    0    0    0  0.13589818041E+01 -0.27015910275E+02  0.83794079635E+01  0.96681795302E+02  0.92441596835E+02 0.  0.
         11    1    3    3    0    0  0.35513277215E+01 -0.45132322788E+02  0.39844043113E+02  0.60308260302E+02  0.51100000000E-03 0. -1.
         22    1    1    0    0    0 -0.13589818041E+01  0.27015910275E+02 -0.83794079635E+01  0.28318204698E+02  0.00000000000E+00 0. -1.
</event>
<event>
 5    1  0.1096978E-009  0.9118800E+02  0.7818608E-02  0.1130116E+00
         25   -1    0    0    0    0  0.00000000000E+00  0.00000000000E+00  0.99999998245E-14  0.12500000000E+03  0.12500000000E+03 0.  0.
        -11    1    3    3    0    0  0.42681592661E+02 -0.27786798526E+02 -0.68796424833E+01  0.51392158987E+02  0.51100000000E-03 0. -1.
         23    2    1    0    0    0  0.11164801455E+01 -0.20228348224E+02 -0.20888330727E+02  0.95900945714E+02  0.91379628083E+02 0.  0.
         11    1    3    3    0    0 -0.41565112515E+02  0.75584503020E+01 -0.14008688244E+02  0.44508786727E+02  0.51100000000E-03 0.  1.
         22    1    1    0    0    0 -0.11164801455E+01  0.20228348224E+02  0.20888330727E+02  0.29099054286E+02  0.00000000000E+00 0. -1.
</event>
<event>
 5    1  0.1096978E-009  0.9118800E+02  0.7818608E-02  0.1130116E+00
         25   -1    0    0    0    0  0.00000000000E+00  0.00000000000E+00  0.99999998245E-14  0.12500000000E+03  0.12500000000E+03 0.  0.
        -11    1    3    3    0    0  0.51602953602E+02  0.32687098899E+02 -0.47104321280E+01  0.61265809600E+02  0.51100000000E-03 0. -1.
         23    2    1    0    0    0  0.29681831778E+02  0.87544023051E+01 -0.45871977616E-01  0.94054034162E+02  0.88817276137E+02 0.  0.
         11    1    3    3    0    0 -0.21921121824E+02 -0.23932696594E+02  0.46645601504E+01  0.32788224562E+02  0.51100000000E-03 0.  1.
         22    1    1    0    0    0 -0.29681831778E+02 -0.87544023051E+01  0.45871977616E-01  0.30945965838E+02  0.00000000000E+00 0. -1.
</event>
<event>
 5    1  0.1096978E-009  0.9118800E+02  0.7818608E-02  0.1130116E+00
         25   -1    0    0    0    0  0.00000000000E+00  0.00000000000E+00  0.99999998245E-14  0.12500000000E+03  0.12500000000E+03 0.  0.
        -11    1    3    3    0    0  0.28338806669E+02 -0.44238636982E+02 -0.90577821844E+01  0.53312178570E+02  0.51100000000E-03 0.  1.
         23    2    1    0    0    0 -0.31138861784E+01 -0.24839113234E+02  0.13450784158E+02  0.96581670917E+02  0.92306108841E+02 0.  0.
         11    1    3    3    0    0 -0.31452692847E+02  0.19399523748E+02  0.22508566342E+02  0.43269492348E+02  0.51100000000E-03 0. -1.
         22    1    1    0    0    0  0.31138861784E+01  0.24839113234E+02 -0.13450784158E+02  0.28418329083E+02  0.00000000000E+00 0. -1.
</event>
<event>
 5    1  0.1096978E-009  0.9118800E+02  0.7818608E-02  0.1130116E+00
         25   -1    0    0    0    0  0.00000000000E+00  0.00000000000E+00  0.99999998245E-14  0.12500000000E+03  0.12500000000E+03 0.  0.
        -11    1    3    3    0    0 -0.22964182456E+02 -0.20482591218E+02  0.29812701900E+02  0.42844922846E+02  0.51100000000E-03 0.  1.
         23    2    1    0    0    0  0.72181410469E+01 -0.22939922292E+02 -0.14798303355E+02  0.96762943193E+02  0.92551260382E+02 0.  0.
         11    1    3    3    0    0  0.30182323503E+02 -0.24573310736E+01 -0.44611005255E+02  0.53918020347E+02  0.51100000000E-03 0. -1.
         22    1    1    0    0    0 -0.72181410469E+01  0.22939922292E+02  0.14798303355E+02  0.28237056807E+02  0.00000000000E+00 0.  1.
</event>
<event>
 5    1  0.1096978E-009  0.9118800E+02  0.7818608E-02  0.1130116E+00
         25   -1    0    0    0    0  0.00000000000E+00  0.00000000000E+00  0.99999998245E-14  0.12500000000E+03  0.12500000000E+03 0.  0.
        -11    1    3    3    0    0 -0.24748085856E+02 -0.10322934709E+02 -0.19380407445E+02  0.33085207079E+02  0.51100000000E-03 0.  1.
         23    2    1    0    0    0  0.29313209654E+02  0.87789689903E+01  0.21353597180E+01  0.94325999317E+02  0.89199214287E+02 0.  0.
         11    1    3    3    0    0  0.54061295509E+02  0.19101903699E+02  0.21515767163E+02  0.61240792238E+02  0.51100000000E-03 0. -1.
         22    1    1    0    0    0 -0.29313209654E+02 -0.87789689903E+01 -0.21353597180E+01  0.30674000683E+02  0.00000000000E+00 0. -1.
</event>
<event>
 5    1  0.1096978E-009  0.9118800E+02  0.7818608E-02  0.1130116E+00
         25   -1    0    0    0    0  0.00000000000E+00  0.00000000000E+00  0.99999998245E-14  0.12500000000E+03  0.12500000000E+03 0.  0.
        -11    1    3    3    0    0 -0.98009805927E+01 -0.42163019885E+02  0.17402735180E+02  0.46654417351E+02  0.51100000000E-03 0. -1.
         23    2    1    0    0    0 -0.12465431276E+02 -0.16504359100E+02 -0.22670150210E+02  0.94312599382E+02  0.89180434207E+02 0.  0.
         11    1    3    3    0    0 -0.26644506828E+01  0.25658660785E+02 -0.40072885389E+02  0.47658182030E+02  0.51100000000E-03 0.  1.
         22    1    1    0    0    0  0.12465431276E+02  0.16504359100E+02  0.22670150210E+02  0.30687400618E+02  0.00000000000E+00 0.  1.
</event>
<event>
 5    1  0.1096978E-009  0.9118800E+02  0.7818608E-02  0.1130116E+00
         25   -1    0    0    0    0  0.00000000000E+00  0.00000000000E+00  0.99999998245E-14  0.12500000000E+03  0.12500000000E+03 0.  0.
        -11    1    3    3    0    0 -0.57302568165E+02  0.37205604525E+01  0.19374647428E+02  0.60603662031E+02  0.51100000000E-03 0.  1.
         23    2    1    0    0    0 -0.25633432692E+02 -0.82613724117E+01  0.13142914856E+02  0.95032361511E+02  0.90183648062E+02 0.  0.
         11    1    3    3    0    0  0.31669135473E+02 -0.11981932864E+02 -0.62317325714E+01  0.34428699480E+02  0.51100000000E-03 0. -1.
         22    1    1    0    0    0  0.25633432692E+02  0.82613724117E+01 -0.13142914856E+02  0.29967638489E+02  0.00000000000E+00 0.  1.
</event>
<event>
 5    1  0.1096978E-009  0.9118800E+02  0.7818608E-02  0.1130116E+00
         25   -1    0    0    0    0  0.00000000000E+00  0.00000000000E+00  0.99999998245E-14  0.12500000000E+03  0.12500000000E+03 0.  0.
        -11    1    3    3    0    0 -0.24844242410E+02  0.39414410887E+02  0.36038287733E+02  0.58902379829E+02  0.51100000000E-03 0. -1.
         23    2    1    0    0    0 -0.15628990527E+02  0.53125955820E+01  0.23281595002E+02  0.96460173748E+02  0.92141431706E+02 0.  0.
         11    1    3    3    0    0  0.92152518830E+01 -0.34101815305E+02 -0.12756692731E+02  0.37557793919E+02  0.51100000000E-03 0.  1.
         22    1    1    0    0    0  0.15628990527E+02 -0.53125955820E+01 -0.23281595002E+02  0.28539826252E+02  0.00000000000E+00 0. -1.
</event>
<event>
 5    1  0.1096978E-009  0.9118800E+02  0.7818608E-02  0.1130116E+00
         25   -1    0    0    0    0  0.00000000000E+00  0.00000000000E+00  0.99999998245E-14  0.12500000000E+03  0.12500000000E+03 0.  0.
        -11    1    3    3    0    0 -0.23729650148E+02 -0.32864488623E+02  0.15315596092E+02  0.43332878885E+02  0.51100000000E-03 0. -1.
         23    2    1    0    0    0  0.24568857243E+02 -0.14562005520E+02  0.60054368309E+01  0.95815311848E+02  0.91262412646E+02 0.  0.
         11    1    3    3    0    0  0.48298507391E+02  0.18302483102E+02 -0.93101592610E+01  0.52482432962E+02  0.51100000000E-03 0.  1.
         22    1    1    0    0    0 -0.24568857243E+02  0.14562005520E+02 -0.60054368309E+01  0.29184688152E+02  0.00000000000E+00 0.  1.
</event>
<event>
 5    1  0.1096978E-009  0.9118800E+02  0.7818608E-02  0.1130116E+00
         25   -1    0    0    0    0  0.00000000000E+00  0.00000000000E+00  0.99999998245E-14  0.12500000000E+03  0.12500000000E+03 0.  0.
        -11    1    3    3    0    0  0.28602907244E+01  0.11498302821E+02  0.36558645985E+02  0.38430805707E+02  0.51100000000E-03 0.  1.
         23    2    1    0    0    0  0.25327926365E+02 -0.18702475080E+00 -0.14778989741E+02  0.95674970248E+02  0.91069987163E+02 0.  0.
         11    1    3    3    0    0  0.22467635641E+02 -0.11685327571E+02 -0.51337635726E+02  0.57244164540E+02  0.51100000000E-03 0. -1.
         22    1    1    0    0    0 -0.25327926365E+02  0.18702475080E+00  0.14778989741E+02  0.29325029752E+02  0.00000000000E+00 0. -1.
</event>
<event>
 5    1  0.1096978E-009  0.9118800E+02  0.7818608E-02  0.1130116E+00
         25   -1    0    0    0    0  0.00000000000E+00  0.00000000000E+00  0.99999998245E-14  0.12500000000E+03  0.12500000000E+03 0.  0.
        -11    1    3    3    0    0 -0.19190346922E+02  0.43482995500E+02 -0.12288778408E+02  0.49092304770E+02  0.51100000000E-03 0. -1.
         23    2    1    0    0    0  0.14897602099E+02  0.14128075285E+02 -0.21780057605E+02  0.95068211399E+02  0.90233324497E+02 0.  0.
         11    1    3    3    0    0  0.34087949021E+02 -0.29354920215E+02 -0.94912791969E+01  0.45975906629E+02  0.51100000000E-03 0.  1.
         22    1    1    0    0    0 -0.14897602099E+02 -0.14128075285E+02  0.21780057605E+02  0.29931788601E+02  0.00000000000E+00 0. -1.
</event>
<event>
 5    1  0.1096978E-009  0.9118800E+02  0.7818608E-02  0.1130116E+00
         25   -1    0    0    0    0  0.00000000000E+00  0.00000000000E+00  0.99999998245E-14  0.12500000000E+03  0.12500000000E+03 0.  0.
        -11    1    3    3    0    0 -0.40377455837E+02  0.83835086459E+01  0.42722669728E+02  0.59378857062E+02  0.51100000000E-03 0.  1.
         23    2    1    0    0    0 -0.88412298879E+01  0.11002654123E+02  0.26583678787E+02  0.94901532904E+02  0.90002129008E+02 0.  0.
         11    1    3    3    0    0  0.31536225949E+02  0.26191454771E+01 -0.16138990941E+02  0.35522675842E+02  0.51100000000E-03 0. -1.
         22    1    1    0    0    0  0.88412298879E+01 -0.11002654123E+02 -0.26583678787E+02  0.30098467096E+02  0.00000000000E+00 0.  1.
</event>
<event>
 5    1  0.1096978E-009  0.9118800E+02  0.7818608E-02  0.1130116E+00
         25   -1    0    0    0    0  0.00000000000E+00  0.00000000000E+00  0.99999998245E-14  0.12500000000E+03  0.12500000000E+03 0.  0.
        -11    1    3    3    0    0 -0.45149197260E+02  0.28689923489E+02  0.66089840810E+01  0.53900281946E+02  0.51100000000E-03 0. -1.
         23    2    1    0    0    0 -0.28628154647E+02 -0.86931865436E+01  0.25351011752E+01  0.94973853582E+02  0.90102516033E+02 0.  0.
         11    1    3    3    0    0  0.16521042613E+02 -0.37383110033E+02 -0.40738829058E+01  0.41073571636E+02  0.51100000000E-03 0.  1.
         22    1    1    0    0    0  0.28628154647E+02  0.86931865436E+01 -0.25351011752E+01  0.30026146418E+02  0.00000000000E+00 0. -1.
</event>
<event>
 5    1  0.1096978E-009  0.9118800E+02  0.7818608E-02  0.1130116E+00
         25   -1    0    0    0    0  0.00000000000E+00  0.00000000000E+00  0.99999998245E-14  0.12500000000E+03  0.12500000000E+03 0.  0.
        -11    1    3    3    0    0 -0.12121742639E+02 -0.32098296217E+02  0.11356218221E+02  0.36141402258E+02  0.51100000000E-03 0.  1.
         23    2    1    0    0    0  0.41969582658E+01  0.25486963047E+02  0.13137638543E+02  0.96020743789E+02  0.91543355561E+02 0.  0.
         11    1    3    3    0    0  0.16318700905E+02  0.57585259263E+02  0.17814203223E+01  0.59879341532E+02  0.51100000000E-03 0. -1.
         22    1    1    0    0    0 -0.41969582658E+01 -0.25486963047E+02 -0.13137638543E+02  0.28979256211E+02  0.00000000000E+00 0. -1.
</event>
<event>
 5    1  0.1096978E-009  0.9118800E+02  0.7818608E-02  0.1130116E+00
         25   -1    0    0    0    0  0.00000000000E+00  0.00000000000E+00  0.99999998245E-14  0.12500000000E+03  0.12500000000E+03 0.  0.
        -11    1    3    3    0    0  0.34388514617E+02  0.17525496388E+01  0.13523192916E+02  0.36993487463E+02  0.51100000000E-03 0. -1.
         23    2    1    0    0    0 -0.85251214125E+01 -0.13155049659E+02 -0.24283413143E+02  0.96096415784E+02  0.91646625394E+02 0.  0.
         11    1    3    3    0    0 -0.42913636030E+02 -0.14907599298E+02 -0.37806606059E+02  0.59102928321E+02  0.51100000000E-03 0.  1.
         22    1    1    0    0    0  0.85251214125E+01  0.13155049659E+02  0.24283413143E+02  0.28903584216E+02  0.00000000000E+00 0.  1.
</event>
<event>
 5    1  0.1096978E-009  0.9118800E+02  0.7818608E-02  0.1130116E+00
         25   -1    0    0    0    0  0.00000000000E+00  0.00000000000E+00  0.99999998245E-14  0.12500000000E+03  0.12500000000E+03 0.  0.
        -11    1    3    3    0    0 -0.39299771357E+02  0.10279903767E+01 -0.43280418895E+02  0.58469850803E+02  0.51100000000E-03 0. -1.
         23    2    1    0    0    0 -0.25181004701E+02  0.10580450819E+02 -0.99062095783E+01  0.95945535188E+02  0.91440602562E+02 0.  0.
         11    1    3    3    0    0  0.14118766655E+02  0.95524604422E+01  0.33374209317E+02  0.37475684385E+02  0.51100000000E-03 0.  1.
         22    1    1    0    0    0  0.25181004701E+02 -0.10580450819E+02  0.99062095783E+01  0.29054464812E+02  0.00000000000E+00 0. -1.
</event>
<event>
 5    1  0.1096978E-009  0.9118800E+02  0.7818608E-02  0.1130116E+00
         25   -1    0    0    0    0  0.00000000000E+00  0.00000000000E+00  0.99999998245E-14  0.12500000000E+03  0.12500000000E+03 0.  0.
        -11    1    3    3    0    0 -0.25079066065E+02  0.87548720671E+01 -0.43143935638E+01  0.26911360644E+02  0.51100000000E-03 0.  1.
         23    2    1    0    0    0  0.11814045749E+02 -0.90365947734E+01 -0.40681005068E+02  0.81685153868E+02  0.69255241441E+02 0.  0.
         11    1    3    3    0    0  0.36893111814E+02 -0.17791466841E+02 -0.36366611504E+02  0.54773793225E+02  0.51100000000E-03 0. -1.
         22    1    1    0    0    0 -0.11814045749E+02  0.90365947734E+01  0.40681005068E+02  0.43314846132E+02  0.00000000000E+00 0. -1.
</event>
<event>
 5    1  0.1096978E-009  0.9118800E+02  0.7818608E-02  0.1130116E+00
         25   -1    0    0    0    0  0.00000000000E+00  0.00000000000E+00  0.99999998245E-14  0.12500000000E+03  0.12500000000E+03 0.  0.
        -11    1    3    3    0    0 -0.29006109182E+02 -0.74374369421E+01  0.22592218410E+02  0.37511040656E+02  0.51100000000E-03 0.  1.
         23    2    1    0    0    0  0.65553003679E+01  0.28927559240E+02 -0.42727708695E+01  0.95032814323E+02  0.90184275684E+02 0.  0.
         11    1    3    3    0    0  0.35561409550E+02  0.36364996183E+02 -0.26864989279E+02  0.57521773667E+02  0.51100000000E-03 0. -1.
         22    1    1    0    0    0 -0.65553003679E+01 -0.28927559240E+02  0.42727708695E+01  0.29967185677E+02  0.00000000000E+00 0. -1.
</event>
<event>
 5    1  0.1096978E-009  0.9118800E+02  0.7818608E-02  0.1130116E+00
         25   -1    0    0    0    0  0.00000000000E+00  0.00000000000E+00  0.99999998245E-14  0.12500000000E+03  0.12500000000E+03 0.  0.
        -11    1    3    3    0    0  0.40658229439E+02  0.28607288797E+02 -0.97971956955E+01  0.50670046746E+02  0.51100000000E-03 0. -1.
         23    2    1    0    0    0 -0.29666002408E+01  0.19095591844E+02 -0.20751526688E+02  0.96643903570E+02  0.92390345234E+02 0.  0.
         11    1    3    3    0    0 -0.43624829680E+02 -0.95116969523E+01 -0.10954330992E+02  0.45973856824E+02  0.51100000000E-03 0.  1.
         22    1    1    0    0    0  0.29666002408E+01 -0.19095591844E+02  0.20751526688E+02  0.28356096430E+02  0.00000000000E+00 0. -1.
</event>
<event>
 5    1  0.1096978E-009  0.9118800E+02  0.7818608E-02  0.1130116E+00
         25   -1    0    0    0    0  0.00000000000E+00  0.00000000000E+00  0.99999998245E-14  0.12500000000E+03  0.12500000000E+03 0.  0.
        -11    1    3    3    0    0  0.42301081759E+01 -0.58956639449E+01  0.52334708148E+02  0.52835351288E+02  0.51100000000E-03 0.  1.
         23    2    1    0    0    0  0.24196156820E+02  0.20822244191E+01  0.13526804709E+02  0.97201364979E+02  0.93141511931E+02 0.  0.
         11    1    3    3    0    0  0.19966048644E+02  0.79778883641E+01 -0.38807903439E+02  0.44366013691E+02  0.51100000000E-03 0. -1.
         22    1    1    0    0    0 -0.24196156820E+02 -0.20822244191E+01 -0.13526804709E+02  0.27798635021E+02  0.00000000000E+00 0. -1.
</event>
<event>
 5    1  0.1096978E-009  0.9118800E+02  0.7818608E-02  0.1130116E+00
         25   -1    0    0    0    0  0.00000000000E+00  0.00000000000E+00  0.99999998245E-14  0.12500000000E+03  0.12500000000E+03 0.  0.
        -11    1    3    3    0    0  0.25744396001E+02 -0.15813399456E+02  0.12059110080E+02  0.32530903216E+02  0.51100000000E-03 0.  1.
         23    2    1    0    0    0 -0.25672865086E+02  0.79878318071E+01 -0.13761570617E+02  0.94795988932E+02  0.89855424061E+02 0.  0.
         11    1    3    3    0    0 -0.51417261088E+02  0.23801231263E+02 -0.25820680697E+02  0.62265085717E+02  0.51100000000E-03 0. -1.
         22    1    1    0    0    0  0.25672865086E+02 -0.79878318071E+01  0.13761570617E+02  0.30204011068E+02  0.00000000000E+00 0. -1.
</event>
<event>
 5    1  0.1096978E-009  0.9118800E+02  0.7818608E-02  0.1130116E+00
         25   -1    0    0    0    0  0.00000000000E+00  0.00000000000E+00  0.99999998245E-14  0.12500000000E+03  0.12500000000E+03 0.  0.
        -11    1    3    3    0    0  0.91707096400E+01 -0.10445335511E+02  0.36980803477E+02  0.39506794039E+02  0.51100000000E-03 0. -1.
         23    2    1    0    0    0 -0.28845582654E+02  0.59741798725E+01 -0.75575989288E+00  0.95532566505E+02  0.90874317748E+02 0.  0.
         11    1    3    3    0    0 -0.38016292294E+02  0.16419515383E+02 -0.37736563369E+02  0.56025772466E+02  0.51100000000E-03 0.  1.
         22    1    1    0    0    0  0.28845582654E+02 -0.59741798725E+01  0.75575989288E+00  0.29467433495E+02  0.00000000000E+00 0.  1.
</event>
<event>
 5    1  0.1096978E-009  0.9118800E+02  0.7818608E-02  0.1130116E+00
         25   -1    0    0    0    0  0.00000000000E+00  0.00000000000E+00  0.99999998245E-14  0.12500000000E+03  0.12500000000E+03 0.  0.
        -11    1    3    3    0    0 -0.76825249273E+01 -0.49161367776E+02  0.16985835893E+02  0.52577370533E+02  0.51100000000E-03 0. -1.
         23    2    1    0    0    0  0.15115360998E+02 -0.11179393445E+02  0.20706388687E+02  0.97032027096E+02  0.92913975128E+02 0.  0.
         11    1    3    3    0    0  0.22797885926E+02  0.37981974331E+02  0.37205527939E+01  0.44454656563E+02  0.51100000000E-03 0.  1.
         22    1    1    0    0    0 -0.15115360998E+02  0.11179393445E+02 -0.20706388687E+02  0.27967972904E+02  0.00000000000E+00 0. -1.
</event>
<event>
 5    1  0.1096978E-009  0.9118800E+02  0.7818608E-02  0.1130116E+00
         25   -1    0    0    0    0  0.00000000000E+00  0.00000000000E+00  0.99999998245E-14  0.12500000000E+03  0.12500000000E+03 0.  0.
        -11    1    3    3    0    0  0.44211641163E+02 -0.25093763015E+02 -0.20452284174E+02  0.54796551760E+02  0.51100000000E-03 0. -1.
         23    2    1    0    0    0  0.24909195417E+01 -0.23330078045E+02 -0.15574910794E+02  0.96838411479E+02  0.92653132002E+02 0.  0.
         11    1    3    3    0    0 -0.41720721622E+02  0.17636849699E+01  0.48773733803E+01  0.42041859719E+02  0.51100000000E-03 0.  1.
         22    1    1    0    0    0 -0.24909195417E+01  0.23330078045E+02  0.15574910794E+02  0.28161588521E+02  0.00000000000E+00 0. -1.
</event>
<event>
 5    1  0.1096978E-009  0.9118800E+02  0.7818608E-02  0.1130116E+00
         25   -1    0    0    0    0  0.00000000000E+00  0.00000000000E+00  0.99999998245E-14  0.12500000000E+03  0.12500000000E+03 0.  0.
        -11    1    3    3    0    0  0.55665595898E+02  0.10909508960E+02 -0.25030307832E+02  0.62001550488E+02  0.51100000000E-03 0. -1.
         23    2    1    0    0    0  0.24115818239E+02  0.81113004626E+01 -0.16025633027E+02  0.94930300992E+02  0.90042074876E+02 0.  0.
         11    1    3    3    0    0 -0.31549777659E+02 -0.27982084970E+01  0.90046748051E+01  0.32928750504E+02  0.51100000000E-03 0.  1.
         22    1    1    0    0    0 -0.24115818239E+02 -0.81113004626E+01  0.16025633027E+02  0.30069699008E+02  0.00000000000E+00 0. -1.
</event>
<event>
 5    1  0.1096978E-009  0.9118800E+02  0.7818608E-02  0.1130116E+00
         25   -1    0    0    0    0  0.00000000000E+00  0.00000000000E+00  0.99999998245E-14  0.12500000000E+03  0.12500000000E+03 0.  0.
        -11    1    3    3    0    0 -0.15120264338E+02 -0.27290385913E+02 -0.28574138193E+02  0.42306842598E+02  0.51100000000E-03 0. -1.
         23    2    1    0    0    0  0.27675637464E+02 -0.17466971111E+01 -0.91285749940E+01  0.95805433019E+02  0.91248880840E+02 0.  0.
         11    1    3    3    0    0  0.42795901801E+02  0.25543688801E+02  0.19445563199E+02  0.53498590420E+02  0.51100000000E-03 0.  1.
         22    1    1    0    0    0 -0.27675637464E+02  0.17466971111E+01  0.91285749940E+01  0.29194566981E+02  0.00000000000E+00 0.  1.
</event>
<event>
 5    1  0.1096978E-009  0.9118800E+02  0.7818608E-02  0.1130116E+00
         25   -1    0    0    0    0  0.00000000000E+00  0.00000000000E+00  0.99999998245E-14  0.12500000000E+03  0.12500000000E+03 0.  0.
        -11    1    3    3    0    0 -0.14581397066E+02  0.24983594386E+02 -0.19621446846E+02  0.34954231581E+02  0.51100000000E-03 0.  1.
         23    2    1    0    0    0 -0.20268350458E+02 -0.68005768560E+01  0.26309861406E+02  0.91099222973E+02  0.84556523954E+02 0.  0.
         11    1    3    3    0    0 -0.56869533925E+01 -0.31784171242E+02  0.45931308251E+02  0.56144991392E+02  0.51100000000E-03 0. -1.
         22    1    1    0    0    0  0.20268350458E+02  0.68005768560E+01 -0.26309861406E+02  0.33900777027E+02  0.00000000000E+00 0. -1.
</event>
<event>
 5    1  0.1096978E-009  0.9118800E+02  0.7818608E-02  0.1130116E+00
         25   -1    0    0    0    0  0.00000000000E+00  0.00000000000E+00  0.99999998245E-14  0.12500000000E+03  0.12500000000E+03 0.  0.
        -11    1    3    3    0    0 -0.40706659631E+02 -0.49266009009E+01 -0.13537054235E+02  0.43180497593E+02  0.51100000000E-03 0.  1.
         23    2    1    0    0    0 -0.48260961885E+01  0.27690794269E+02  0.73016361621E+01  0.95958905284E+02  0.91458877759E+02 0.  0.
         11    1    3    3    0    0  0.35880563442E+02  0.32617395170E+02  0.20838690397E+02  0.52778407691E+02  0.51100000000E-03 0. -1.
         22    1    1    0    0    0  0.48260961885E+01 -0.27690794269E+02 -0.73016361621E+01  0.29041094716E+02  0.00000000000E+00 0. -1.
</event>
<event>
 5    1  0.1096978E-009  0.9118800E+02  0.7818608E-02  0.1130116E+00
         25   -1    0    0    0    0  0.00000000000E+00  0.00000000000E+00  0.99999998245E-14  0.12500000000E+03  0.12500000000E+03 0.  0.
        -11    1    3    3    0    0  0.48051306055E+02 -0.31283406946E+01  0.23176623114E+02  0.53440344201E+02  0.51100000000E-03 0. -1.
         23    2    1    0    0    0  0.76008145334E+01 -0.15554907658E+02  0.23565796978E+02  0.95758346131E+02  0.91184354649E+02 0.  0.
         11    1    3    3    0    0 -0.40450491521E+02 -0.12426566963E+02  0.38917386345E+00  0.42318001930E+02  0.51100000000E-03 0.  1.
         22    1    1    0    0    0 -0.76008145334E+01  0.15554907658E+02 -0.23565796978E+02  0.29241653869E+02  0.00000000000E+00 0. -1.
</event>
<event>
 5    1  0.1096978E-009  0.9118800E+02  0.7818608E-02  0.1130116E+00
         25   -1    0    0    0    0  0.00000000000E+00  0.00000000000E+00  0.99999998245E-14  0.12500000000E+03  0.12500000000E+03 0.  0.
        -11    1    3    3    0    0 -0.22656622741E+02 -0.33659393915E+02 -0.52685835439E+01  0.40914976788E+02  0.51100000000E-03 0.  1.
         23    2    1    0    0    0  0.97725156619E+01 -0.26640569395E+01  0.26992091821E+02  0.96169941335E+02  0.91746854626E+02 0.  0.
         11    1    3    3    0    0  0.32429138403E+02  0.30995336976E+02  0.32260675365E+02  0.55254964547E+02  0.51100000000E-03 0. -1.
         22    1    1    0    0    0 -0.97725156619E+01  0.26640569395E+01 -0.26992091821E+02  0.28830058665E+02  0.00000000000E+00 0. -1.
</event>
<event>
 5    1  0.1096978E-009  0.9118800E+02  0.7818608E-02  0.1130116E+00
         25   -1    0    0    0    0  0.00000000000E+00  0.00000000000E+00  0.99999998245E-14  0.12500000000E+03  0.12500000000E+03 0.  0.
        -11    1    3    3    0    0  0.38536234026E+02 -0.27393871387E+02  0.22664462695E+02  0.52432274336E+02  0.51100000000E-03 0. -1.
         23    2    1    0    0    0  0.27665928484E+02  0.92999896522E+01  0.24576526277E+01  0.95709498761E+02  0.91117367665E+02 0.  0.
         11    1    3    3    0    0 -0.10870305543E+02  0.36693861040E+02 -0.20206810067E+02  0.43277224425E+02  0.51100000000E-03 0.  1.
         22    1    1    0    0    0 -0.27665928484E+02 -0.92999896522E+01 -0.24576526277E+01  0.29290501239E+02  0.00000000000E+00 0.  1.
</event>
<event>
 5    1  0.1096978E-009  0.9118800E+02  0.7818608E-02  0.1130116E+00
         25   -1    0    0    0    0  0.00000000000E+00  0.00000000000E+00  0.99999998245E-14  0.12500000000E+03  0.12500000000E+03 0.  0.
        -11    1    3    3    0    0  0.15300230270E+02 -0.22831943560E+02 -0.28120550964E+02  0.39321242094E+02  0.51100000000E-03 0. -1.
         23    2    1    0    0    0  0.35712372162E+02  0.13606975973E+02 -0.69153592784E+01  0.86162575851E+02  0.76913223588E+02 0.  0.
         11    1    3    3    0    0  0.20412141892E+02  0.36438919533E+02  0.21205191686E+02  0.46841333756E+02  0.51100000000E-03 0.  1.
         22    1    1    0    0    0 -0.35712372162E+02 -0.13606975973E+02  0.69153592784E+01  0.38837424149E+02  0.00000000000E+00 0.  1.
</event>
<event>
 5    1  0.1096978E-009  0.9118800E+02  0.7818608E-02  0.1130116E+00
         25   -1    0    0    0    0  0.00000000000E+00  0.00000000000E+00  0.99999998245E-14  0.12500000000E+03  0.12500000000E+03 0.  0.
        -11    1    3    3    0    0 -0.19860406470E+02  0.12166367862E+02 -0.35251435967E+02  0.42250680351E+02  0.51100000000E-03 0.  1.
         23    2    1    0    0    0 -0.13796461889E+02  0.29287232209E+02  0.10086088731E+02  0.91091099737E+02  0.84544514513E+02 0.  0.
         11    1    3    3    0    0  0.60639445806E+01  0.17120864347E+02  0.45337524698E+02  0.48840419387E+02  0.51100000000E-03 0. -1.
         22    1    1    0    0    0  0.13796461889E+02 -0.29287232209E+02 -0.10086088731E+02  0.33908900263E+02  0.00000000000E+00 0.  1.
</event>
<event>
 5    1  0.1096978E-009  0.9118800E+02  0.7818608E-02  0.1130116E+00
         25   -1    0    0    0    0  0.00000000000E+00  0.00000000000E+00  0.99999998245E-14  0.12500000000E+03  0.12500000000E+03 0.  0.
        -11    1    3    3    0    0  0.79072509441E+01  0.24989762875E+02 -0.55928922097E+02  0.61766149250E+02  0.51100000000E-03 0.  1.
         23    2    1    0    0    0  0.24287920017E+01  0.49820031311E+01 -0.27431175126E+02  0.97014490275E+02  0.92890379312E+02 0.  0.
         11    1    3    3    0    0 -0.54784589423E+01 -0.20007759743E+02  0.28497746971E+02  0.35248341025E+02  0.51100000000E-03 0. -1.
         22    1    1    0    0    0 -0.24287920017E+01 -0.49820031311E+01  0.27431175126E+02  0.27985509725E+02  0.00000000000E+00 0.  1.
</event>
<event>
 5    1  0.1096978E-009  0.9118800E+02  0.7818608E-02  0.1130116E+00
         25   -1    0    0    0    0  0.00000000000E+00  0.00000000000E+00  0.99999998245E-14  0.12500000000E+03  0.12500000000E+03 0.  0.
        -11    1    3    3    0    0  0.32545662352E+01  0.13126186061E+02 -0.46440518554E+02  0.48369522695E+02  0.51100000000E-03 0.  1.
         23    2    1    0    0    0 -0.19243679576E+02  0.21113387464E+02 -0.52856597340E+01  0.95947762003E+02  0.91443646584E+02 0.  0.
         11    1    3    3    0    0 -0.22498245811E+02  0.79872014031E+01  0.41154858820E+02  0.47578239308E+02  0.51100000000E-03 0. -1.
         22    1    1    0    0    0  0.19243679576E+02 -0.21113387464E+02  0.52856597340E+01  0.29052237997E+02  0.00000000000E+00 0.  1.
</event>
<event>
 5    1  0.1096978E-009  0.9118800E+02  0.7818608E-02  0.1130116E+00
         25   -1    0    0    0    0  0.00000000000E+00  0.00000000000E+00  0.99999998245E-14  0.12500000000E+03  0.12500000000E+03 0.  0.
        -11    1    3    3    0    0 -0.27622928859E+02  0.14692547826E+02 -0.35323260505E+01  0.31486099917E+02  0.51100000000E-03 0. -1.
         23    2    1    0    0    0  0.19929861552E+02  0.30912429526E+02  0.15329900152E+02  0.85152998615E+02  0.75254565667E+02 0.  0.
         11    1    3    3    0    0  0.47552790412E+02  0.16219881699E+02  0.18862226203E+02  0.53666898698E+02  0.51100000000E-03 0.  1.
         22    1    1    0    0    0 -0.19929861552E+02 -0.30912429526E+02 -0.15329900152E+02  0.39847001385E+02  0.00000000000E+00 0.  1.
</event>
<event>
 5    1  0.1096978E-009  0.9118800E+02  0.7818608E-02  0.1130116E+00
         25   -1    0    0    0    0  0.00000000000E+00  0.00000000000E+00  0.99999998245E-14  0.12500000000E+03  0.12500000000E+03 0.  0.
        -11    1    3    3    0    0  0.86640420148E+01  0.20891871957E+02 -0.51285282097E+02  0.56051013354E+02  0.51100000000E-03 0. -1.
         23    2    1    0    0    0 -0.62062885732E+01  0.25614526705E+02 -0.17225126085E+02  0.93514654761E+02  0.88054890212E+02 0.  0.
         11    1    3    3    0    0 -0.14870330588E+02  0.47226547482E+01  0.34060156012E+02  0.37463641408E+02  0.51100000000E-03 0.  1.
         22    1    1    0    0    0  0.62062885732E+01 -0.25614526705E+02  0.17225126085E+02  0.31485345239E+02  0.00000000000E+00 0. -1.
</event>
<event>
 5    1  0.1096978E-009  0.9118800E+02  0.7818608E-02  0.1130116E+00
         25   -1    0    0    0    0  0.00000000000E+00  0.00000000000E+00  0.99999998245E-14  0.12500000000E+03  0.12500000000E+03 0.  0.
        -11    1    3    3    0    0 -0.35470681213E+02  0.14382418787E+02  0.28485621244E+02  0.47712197747E+02  0.51100000000E-03 0.  1.
         23    2    1    0    0    0 -0.96193156832E+01 -0.23745431643E+02  0.12681914589E+02  0.96413154847E+02  0.92077623296E+02 0.  0.
         11    1    3    3    0    0  0.25851365530E+02 -0.38127850431E+02 -0.15803706655E+02  0.48700957101E+02  0.51100000000E-03 0. -1.
         22    1    1    0    0    0  0.96193156832E+01  0.23745431643E+02 -0.12681914589E+02  0.28586845153E+02  0.00000000000E+00 0.  1.
</event>
<event>
 5    1  0.1096978E-009  0.9118800E+02  0.7818608E-02  0.1130116E+00
         25   -1    0    0    0    0  0.00000000000E+00  0.00000000000E+00  0.99999998245E-14  0.12500000000E+03  0.12500000000E+03 0.  0.
        -11    1    3    3    0    0 -0.49392506451E+02  0.12215537516E+02  0.90291302432E+01  0.51675567182E+02  0.51100000000E-03 0. -1.
         23    2    1    0    0    0 -0.98041869873E+01  0.11415633290E+02  0.26161551141E+02  0.94819451231E+02  0.89888057091E+02 0.  0.
         11    1    3    3    0    0  0.39588319464E+02 -0.79990422601E+00  0.17132420898E+02  0.43143884049E+02  0.51100000000E-03 0.  1.
         22    1    1    0    0    0  0.98041869873E+01 -0.11415633290E+02 -0.26161551141E+02  0.30180548769E+02  0.00000000000E+00 0. -1.
</event>
<event>
 5    1  0.1096978E-009  0.9118800E+02  0.7818608E-02  0.1130116E+00
         25   -1    0    0    0    0  0.00000000000E+00  0.00000000000E+00  0.99999998245E-14  0.12500000000E+03  0.12500000000E+03 0.  0.
        -11    1    3    3    0    0 -0.34781863265E+02  0.68346835465E+01  0.54445785948E+01  0.35862715286E+02  0.51100000000E-03 0.  1.
         23    2    1    0    0    0  0.15902846496E+02 -0.22253499252E+02  0.12870901769E+02  0.94771224504E+02  0.89820967073E+02 0.  0.
         11    1    3    3    0    0  0.50684709761E+02 -0.29088182799E+02  0.74263231741E+01  0.58908509218E+02  0.51100000000E-03 0. -1.
         22    1    1    0    0    0 -0.15902846496E+02  0.22253499252E+02 -0.12870901769E+02  0.30228775496E+02  0.00000000000E+00 0. -1.
</event>
<event>
 5    1  0.1096978E-009  0.9118800E+02  0.7818608E-02  0.1130116E+00
         25   -1    0    0    0    0  0.00000000000E+00  0.00000000000E+00  0.99999998245E-14  0.12500000000E+03  0.12500000000E+03 0.  0.
        -11    1    3    3    0    0 -0.66720633481E+01  0.16262943571E+02  0.12014816914E+02  0.21292148521E+02  0.51100000000E-03 0. -1.
         23    2    1    0    0    0  0.17116717639E+02 -0.31402600889E+02 -0.20572289378E+02  0.83740765209E+02  0.72871059428E+02 0.  0.
         11    1    3    3    0    0  0.23788780987E+02 -0.47665544459E+02 -0.32587106292E+02  0.62448616688E+02  0.51100000000E-03 0.  1.
         22    1    1    0    0    0 -0.17116717639E+02  0.31402600889E+02  0.20572289378E+02  0.41259234791E+02  0.00000000000E+00 0.  1.
</event>
<event>
 5    1  0.1096978E-009  0.9118800E+02  0.7818608E-02  0.1130116E+00
         25   -1    0    0    0    0  0.00000000000E+00  0.00000000000E+00  0.99999998245E-14  0.12500000000E+03  0.12500000000E+03 0.  0.
        -11    1    3    3    0    0 -0.37731963173E+02  0.27718780503E+01  0.45972497723E+02  0.59538684063E+02  0.51100000000E-03 0. -1.
         23    2    1    0    0    0 -0.15235474382E+02 -0.11736346478E+02  0.24486406107E+02  0.93864078746E+02  0.88549532391E+02 0.  0.
         11    1    3    3    0    0  0.22496488792E+02 -0.14508224529E+02 -0.21486091617E+02  0.34325394683E+02  0.51100000000E-03 0.  1.
         22    1    1    0    0    0  0.15235474382E+02  0.11736346478E+02 -0.24486406107E+02  0.31135921254E+02  0.00000000000E+00 0. -1.
</event>
<event>
 5    1  0.1096978E-009  0.9118800E+02  0.7818608E-02  0.1130116E+00
         25   -1    0    0    0    0  0.00000000000E+00  0.00000000000E+00  0.99999998245E-14  0.12500000000E+03  0.12500000000E+03 0.  0.
        -11    1    3    3    0    0  0.15004151269E+02  0.40234556668E+02  0.30004743724E+01  0.43045870328E+02  0.51100000000E-03 0. -1.
         23    2    1    0    0    0  0.17271099570E+02 -0.12298688980E+02 -0.15443870542E+02  0.98769068482E+02  0.95222198675E+02 0.  0.
         11    1    3    3    0    0  0.22669483016E+01 -0.52533245648E+02 -0.18444344915E+02  0.55723198154E+02  0.51100000000E-03 0.  1.
         22    1    1    0    0    0 -0.17271099570E+02  0.12298688980E+02  0.15443870542E+02  0.26230931518E+02  0.00000000000E+00 0.  1.
</event>
<event>
 5    1  0.1096978E-009  0.9118800E+02  0.7818608E-02  0.1130116E+00
         25   -1    0    0    0    0  0.00000000000E+00  0.00000000000E+00  0.99999998245E-14  0.12500000000E+03  0.12500000000E+03 0.  0.
        -11    1    3    3    0    0  0.21294432837E+02  0.68822116413E+01  0.23399107386E+02  0.32378016209E+02  0.51100000000E-03 0.  1.
         23    2    1    0    0    0 -0.27462782856E+02  0.62950132201E+01 -0.13722252170E+02  0.93661017275E+02  0.88262417363E+02 0.  0.
         11    1    3    3    0    0 -0.48757215693E+02 -0.58719842118E+00 -0.37121359555E+02  0.61283001066E+02  0.51100000000E-03 0. -1.
         22    1    1    0    0    0  0.27462782856E+02 -0.62950132201E+01  0.13722252170E+02  0.31338982725E+02  0.00000000000E+00 0. -1.
</event>
<event>
 5    1  0.1096978E-009  0.9118800E+02  0.7818608E-02  0.1130116E+00
         25   -1    0    0    0    0  0.00000000000E+00  0.00000000000E+00  0.99999998245E-14  0.12500000000E+03  0.12500000000E+03 0.  0.
        -11    1    3    3    0    0  0.24553883491E+02 -0.26074053029E+02  0.25370981437E+02  0.43891185165E+02  0.51100000000E-03 0. -1.
         23    2    1    0    0    0  0.77749419014E+01  0.19426229991E+02  0.25014354437E+02  0.92387946076E+02  0.86440653161E+02 0.  0.
         11    1    3    3    0    0 -0.16778941589E+02  0.45500283020E+02 -0.35662699934E+00  0.48496760911E+02  0.51100000000E-03 0.  1.
         22    1    1    0    0    0 -0.77749419014E+01 -0.19426229991E+02 -0.25014354437E+02  0.32612053924E+02  0.00000000000E+00 0. -1.
</event>
<event>
 5    1  0.1096978E-009  0.9118800E+02  0.7818608E-02  0.1130116E+00
         25   -1    0    0    0    0  0.00000000000E+00  0.00000000000E+00  0.99999998245E-14  0.12500000000E+03  0.12500000000E+03 0.  0.
        -11    1    3    3    0    0  0.74718351798E+01 -0.39487004610E+01  0.31626720399E+02  0.32736371206E+02  0.51100000000E-03 0. -1.
         23    2    1    0    0    0  0.75926248371E+01  0.57391464207E+01 -0.29178409280E+02  0.94308546439E+02  0.89174753209E+02 0.  0.
         11    1    3    3    0    0  0.12078965725E+00  0.96878468817E+01 -0.60805129679E+02  0.61572175233E+02  0.51100000000E-03 0.  1.
         22    1    1    0    0    0 -0.75926248371E+01 -0.57391464207E+01  0.29178409280E+02  0.30691453561E+02  0.00000000000E+00 0.  1.
</event>
<event>
 5    1  0.1096978E-009  0.9118800E+02  0.7818608E-02  0.1130116E+00
         25   -1    0    0    0    0  0.00000000000E+00  0.00000000000E+00  0.99999998245E-14  0.12500000000E+03  0.12500000000E+03 0.  0.
        -11    1    3    3    0    0  0.16159235417E+02  0.14271888426E+02 -0.39272979652E+02  0.44801502425E+02  0.51100000000E-03 0.  1.
         23    2    1    0    0    0 -0.26054469667E+02  0.58402833808E+01 -0.12293531755E+02  0.95604843552E+02  0.90973682392E+02 0.  0.
         11    1    3    3    0    0 -0.42213705084E+02 -0.84316050449E+01  0.26979447897E+02  0.50803341127E+02  0.51100000000E-03 0. -1.
         22    1    1    0    0    0  0.26054469667E+02 -0.58402833808E+01  0.12293531755E+02  0.29395156448E+02  0.00000000000E+00 0. -1.
</event>
<event>
 5    1  0.1096978E-009  0.9118800E+02  0.7818608E-02  0.1130116E+00
         25   -1    0    0    0    0  0.00000000000E+00  0.00000000000E+00  0.99999998245E-14  0.12500000000E+03  0.12500000000E+03 0.  0.
        -11    1    3    3    0    0  0.40826965382E+02  0.44718860242E+02  0.73529538353E+01  0.60997405633E+02  0.51100000000E-03 0. -1.
         23    2    1    0    0    0  0.29574770248E+02  0.32585976888E+02 -0.36090220262E+01  0.80846427495E+02  0.67724492421E+02 0.  0.
         11    1    3    3    0    0 -0.11252195133E+02 -0.12132883355E+02 -0.10961975861E+02  0.19849021862E+02  0.51100000000E-03 0.  1.
         22    1    1    0    0    0 -0.29574770248E+02 -0.32585976888E+02  0.36090220262E+01  0.44153572505E+02  0.00000000000E+00 0. -1.
</event>
<event>
 5    1  0.1096978E-009  0.9118800E+02  0.7818608E-02  0.1130116E+00
         25   -1    0    0    0    0  0.00000000000E+00  0.00000000000E+00  0.99999998245E-14  0.12500000000E+03  0.12500000000E+03 0.  0.
        -11    1    3    3    0    0 -0.22659529839E+02 -0.14557263006E+02  0.15909817093E+02  0.31280832453E+02  0.51100000000E-03 0.  1.
         23    2    1    0    0    0  0.29116668835E+02  0.12989344054E+02 -0.31840413969E+01  0.92958751856E+02  0.87262179460E+02 0.  0.
         11    1    3    3    0    0  0.51776198674E+02  0.27546607060E+02 -0.19093858490E+02  0.61677919403E+02  0.51100000000E-03 0. -1.
         22    1    1    0    0    0 -0.29116668835E+02 -0.12989344054E+02  0.31840413969E+01  0.32041248144E+02  0.00000000000E+00 0. -1.
</event>
<event>
 5    1  0.1096978E-009  0.9118800E+02  0.7818608E-02  0.1130116E+00
         25   -1    0    0    0    0  0.00000000000E+00  0.00000000000E+00  0.99999998245E-14  0.12500000000E+03  0.12500000000E+03 0.  0.
        -11    1    3    3    0    0 -0.32248088687E+02 -0.20243265802E+02  0.24399848653E+02  0.45222578972E+02  0.51100000000E-03 0.  1.
         23    2    1    0    0    0  0.16302993469E+02 -0.21962152994E+02  0.96944115622E+01  0.95980948056E+02  0.91488999415E+02 0.  0.
         11    1    3    3    0    0  0.48551082157E+02 -0.17188871925E+01 -0.14705437091E+02  0.50758369084E+02  0.51100000000E-03 0. -1.
         22    1    1    0    0    0 -0.16302993469E+02  0.21962152994E+02 -0.96944115622E+01  0.29019051944E+02  0.00000000000E+00 0.  1.
</event>
<event>
 5    1  0.1096978E-009  0.9118800E+02  0.7818608E-02  0.1130116E+00
         25   -1    0    0    0    0  0.00000000000E+00  0.00000000000E+00  0.99999998245E-14  0.12500000000E+03  0.12500000000E+03 0.  0.
        -11    1    3    3    0    0  0.18305980873E+02 -0.27490622277E+02 -0.61674814859E+00  0.33033674143E+02  0.51100000000E-03 0. -1.
         23    2    1    0    0    0 -0.22341216595E+02  0.19270676070E+02 -0.46896852585E+01  0.95125561713E+02  0.90312736800E+02 0.  0.
         11    1    3    3    0    0 -0.40647197468E+02  0.46761298346E+02 -0.40729371099E+01  0.62091887570E+02  0.51100000000E-03 0.  1.
         22    1    1    0    0    0  0.22341216595E+02 -0.19270676070E+02  0.46896852585E+01  0.29874438287E+02  0.00000000000E+00 0.  1.
</event>
<event>
 5    1  0.1096978E-009  0.9118800E+02  0.7818608E-02  0.1130116E+00
         25   -1    0    0    0    0  0.00000000000E+00  0.00000000000E+00  0.99999998245E-14  0.12500000000E+03  0.12500000000E+03 0.  0.
        -11    1    3    3    0    0  0.19224854226E+02 -0.30926640850E+02 -0.61923921899E+01  0.36937756505E+02  0.51100000000E-03 0.  1.
         23    2    1    0    0    0 -0.95754179800E+00  0.15356814394E+02  0.24530961054E+02  0.96042847431E+02  0.91573532518E+02 0.  0.
         11    1    3    3    0    0 -0.20182396024E+02  0.46283455244E+02  0.30723353244E+02  0.59105090927E+02  0.51100000000E-03 0. -1.
         22    1    1    0    0    0  0.95754179800E+00 -0.15356814394E+02 -0.24530961054E+02  0.28957152569E+02  0.00000000000E+00 0. -1.
</event>
<event>
 5    1  0.1096978E-009  0.9118800E+02  0.7818608E-02  0.1130116E+00
         25   -1    0    0    0    0  0.00000000000E+00  0.00000000000E+00  0.99999998245E-14  0.12500000000E+03  0.12500000000E+03 0.  0.
        -11    1    3    3    0    0 -0.44678799672E+02  0.37836673270E+02 -0.13809729072E+02  0.60154115417E+02  0.51100000000E-03 0.  1.
         23    2    1    0    0    0 -0.20812218423E+02  0.21417367865E+02  0.50370014018E+01  0.94714302632E+02  0.89741716375E+02 0.  0.
         11    1    3    3    0    0  0.23866581249E+02 -0.16419305405E+02  0.18846730474E+02  0.34560187215E+02  0.51100000000E-03 0. -1.
         22    1    1    0    0    0  0.20812218423E+02 -0.21417367865E+02 -0.50370014018E+01  0.30285697368E+02  0.00000000000E+00 0.  1.
</event>
<event>
 5    1  0.1096978E-009  0.9118800E+02  0.7818608E-02  0.1130116E+00
         25   -1    0    0    0    0  0.00000000000E+00  0.00000000000E+00  0.99999998245E-14  0.12500000000E+03  0.12500000000E+03 0.  0.
        -11    1    3    3    0    0  0.20370003044E+02  0.27031663943E+02  0.43064288482E+02  0.54773906399E+02  0.51100000000E-03 0. -1.
         23    2    1    0    0    0  0.13913535895E+02  0.21657394610E+02 -0.61241844080E+00  0.99251130535E+02  0.95852921884E+02 0.  0.
         11    1    3    3    0    0 -0.64564671487E+01 -0.53742693331E+01 -0.43676706923E+02  0.44477224136E+02  0.51100000000E-03 0.  1.
         22    1    1    0    0    0 -0.13913535895E+02 -0.21657394610E+02  0.61241844080E+00  0.25748869465E+02  0.00000000000E+00 0. -1.
</event>
<event>
 5    1  0.1096978E-009  0.9118800E+02  0.7818608E-02  0.1130116E+00
         25   -1    0    0    0    0  0.00000000000E+00  0.00000000000E+00  0.99999998245E-14  0.12500000000E+03  0.12500000000E+03 0.  0.
        -11    1    3    3    0    0 -0.52889387773E+02  0.21556435306E+01 -0.21802313400E+02  0.57247489097E+02  0.51100000000E-03 0. -1.
         23    2    1    0    0    0 -0.26452720408E+02  0.14043567895E+02  0.23235384978E+01  0.94960575116E+02  0.90084092819E+02 0.  0.
         11    1    3    3    0    0  0.26436667365E+02  0.11887924364E+02  0.24125851897E+02  0.37713086019E+02  0.51100000000E-03 0.  1.
         22    1    1    0    0    0  0.26452720408E+02 -0.14043567895E+02 -0.23235384978E+01  0.30039424884E+02  0.00000000000E+00 0. -1.
</event>
<event>
 5    1  0.1096978E-009  0.9118800E+02  0.7818608E-02  0.1130116E+00
         25   -1    0    0    0    0  0.00000000000E+00  0.00000000000E+00  0.99999998245E-14  0.12500000000E+03  0.12500000000E+03 0.  0.
        -11    1    3    3    0    0  0.23447692543E+02  0.72528589768E+01  0.20059491607E+02  0.31698287852E+02  0.51100000000E-03 0.  1.
         23    2    1    0    0    0 -0.16063201849E+02  0.50539732824E+01 -0.26996723358E+02  0.93181889251E+02  0.87581232651E+02 0.  0.
         11    1    3    3    0    0 -0.39510894392E+02 -0.21988856944E+01 -0.47056214964E+02  0.61483601399E+02  0.51100000000E-03 0. -1.
         22    1    1    0    0    0  0.16063201849E+02 -0.50539732824E+01  0.26996723358E+02  0.31818110749E+02  0.00000000000E+00 0. -1.
</event>
<event>
 5    1  0.1096978E-009  0.9118800E+02  0.7818608E-02  0.1130116E+00
         25   -1    0    0    0    0  0.00000000000E+00  0.00000000000E+00  0.99999998245E-14  0.12500000000E+03  0.12500000000E+03 0.  0.
        -11    1    3    3    0    0 -0.62258614054E+01 -0.40346572960E+02  0.12805591052E+02  0.42785400107E+02  0.51100000000E-03 0.  1.
         23    2    1    0    0    0 -0.64044214475E+01 -0.54349690046E+01 -0.27579934068E+02  0.96169317293E+02  0.91746004399E+02 0.  0.
         11    1    3    3    0    0 -0.17856004212E+00  0.34911603956E+02 -0.40385525121E+02  0.53383917185E+02  0.51100000000E-03 0. -1.
         22    1    1    0    0    0  0.64044214475E+01  0.54349690046E+01  0.27579934068E+02  0.28830682707E+02  0.00000000000E+00 0. -1.
</event>
<event>
 5    1  0.1096978E-009  0.9118800E+02  0.7818608E-02  0.1130116E+00
         25   -1    0    0    0    0  0.00000000000E+00  0.00000000000E+00  0.99999998245E-14  0.12500000000E+03  0.12500000000E+03 0.  0.
        -11    1    3    3    0    0  0.31685920649E+02 -0.11603409336E+02  0.18055651119E+01  0.33791962672E+02  0.51100000000E-03 0. -1.
         23    2    1    0    0    0 -0.20602350948E+02  0.19364455785E+02  0.97764941305E+01  0.95083134357E+02  0.90253994865E+02 0.  0.
         11    1    3    3    0    0 -0.52288271597E+02  0.30967865121E+02  0.79709290186E+01  0.61291171685E+02  0.51100000000E-03 0.  1.
         22    1    1    0    0    0  0.20602350948E+02 -0.19364455785E+02 -0.97764941305E+01  0.29916865643E+02  0.00000000000E+00 0.  1.
</event>
<event>
 5    1  0.1096978E-009  0.9118800E+02  0.7818608E-02  0.1130116E+00
         25   -1    0    0    0    0  0.00000000000E+00  0.00000000000E+00  0.99999998245E-14  0.12500000000E+03  0.12500000000E+03 0.  0.
        -11    1    3    3    0    0 -0.33548220032E+02  0.44890429132E+01  0.44818541750E+02  0.56163477977E+02  0.51100000000E-03 0.  1.
         23    2    1    0    0    0 -0.94698187256E+00  0.15223215555E+02  0.24763573515E+02  0.95916024348E+02  0.91400252117E+02 0.  0.
         11    1    3    3    0    0  0.32601238159E+02  0.10734172642E+02 -0.20054968235E+02  0.39752546371E+02  0.51100000000E-03 0. -1.
         22    1    1    0    0    0  0.94698187256E+00 -0.15223215555E+02 -0.24763573515E+02  0.29083975652E+02  0.00000000000E+00 0.  1.
</event>
<event>
 5    1  0.1096978E-009  0.9118800E+02  0.7818608E-02  0.1130116E+00
         25   -1    0    0    0    0  0.00000000000E+00  0.00000000000E+00  0.99999998245E-14  0.12500000000E+03  0.12500000000E+03 0.  0.
        -11    1    3    3    0    0 -0.47484427321E+02 -0.27597362196E+02  0.12501006265E+02  0.56326373894E+02  0.51100000000E-03 0. -1.
         23    2    1    0    0    0 -0.25984492290E+02  0.28821346583E+01  0.16877490537E+02  0.93881673783E+02  0.88574366753E+02 0.  0.
         11    1    3    3    0    0  0.21499935031E+02  0.30479496854E+02  0.43764842720E+01  0.37555299888E+02  0.51100000000E-03 0.  1.
         22    1    1    0    0    0  0.25984492290E+02 -0.28821346583E+01 -0.16877490537E+02  0.31118326217E+02  0.00000000000E+00 0. -1.
</event>
<event>
 5    1  0.1096978E-009  0.9118800E+02  0.7818608E-02  0.1130116E+00
         25   -1    0    0    0    0  0.00000000000E+00  0.00000000000E+00  0.99999998245E-14  0.12500000000E+03  0.12500000000E+03 0.  0.
        -11    1    3    3    0    0  0.46206108622E+02  0.19750689012E+02 -0.27266530656E+02  0.57171302982E+02  0.51100000000E-03 0.  1.
         23    2    1    0    0    0  0.18661970101E+02 -0.61894759127E+01 -0.22199788486E+02  0.95345163144E+02  0.90616172873E+02 0.  0.
         11    1    3    3    0    0 -0.27544138521E+02 -0.25940164925E+02  0.50667421698E+01  0.38173860162E+02  0.51100000000E-03 0. -1.
         22    1    1    0    0    0 -0.18661970101E+02  0.61894759127E+01  0.22199788486E+02  0.29654836856E+02  0.00000000000E+00 0. -1.
</event>
<event>
 5    1  0.1096978E-009  0.9118800E+02  0.7818608E-02  0.1130116E+00
         25   -1    0    0    0    0  0.00000000000E+00  0.00000000000E+00  0.99999998245E-14  0.12500000000E+03  0.12500000000E+03 0.  0.
        -11    1    3    3    0    0 -0.29157259589E+02 -0.17144506026E+02 -0.84737117646E+01  0.34869523440E+02  0.51100000000E-03 0. -1.
         23    2    1    0    0    0  0.10400226799E+02  0.16873344669E+02  0.22078302991E+02  0.95329712830E+02  0.90594857511E+02 0.  0.
         11    1    3    3    0    0  0.39557486387E+02  0.34017850695E+02  0.30552014756E+02  0.60460189390E+02  0.51100000000E-03 0.  1.
         22    1    1    0    0    0 -0.10400226799E+02 -0.16873344669E+02 -0.22078302991E+02  0.29670287170E+02  0.00000000000E+00 0.  1.
</event>
<event>
 5    1  0.1096978E-009  0.9118800E+02  0.7818608E-02  0.1130116E+00
         25   -1    0    0    0    0  0.00000000000E+00  0.00000000000E+00  0.99999998245E-14  0.12500000000E+03  0.12500000000E+03 0.  0.
        -11    1    3    3    0    0  0.29034906603E+01 -0.41261411085E+02 -0.40645285839E+01  0.41562659872E+02  0.51100000000E-03 0.  1.
         23    2    1    0    0    0 -0.78473920393E+01  0.16515201612E+02 -0.15012230711E+02  0.10134200945E+03  0.98541881257E+02 0.  0.
         11    1    3    3    0    0 -0.10750882700E+02  0.57776612697E+02 -0.10947702127E+02  0.59779349575E+02  0.51100000000E-03 0. -1.
         22    1    1    0    0    0  0.78473920393E+01 -0.16515201612E+02  0.15012230711E+02  0.23657990553E+02  0.00000000000E+00 0. -1.
</event>
<event>
 5    1  0.1096978E-009  0.9118800E+02  0.7818608E-02  0.1130116E+00
         25   -1    0    0    0    0  0.00000000000E+00  0.00000000000E+00  0.99999998245E-14  0.12500000000E+03  0.12500000000E+03 0.  0.
        -11    1    3    3    0    0 -0.15315034049E+02 -0.30271343355E+02 -0.40977179494E+02  0.53198061393E+02  0.51100000000E-03 0.  1.
         23    2    1    0    0    0  0.16629322500E+02 -0.11701346317E+02 -0.23036981163E+02  0.94272839807E+02  0.89124687668E+02 0.  0.
         11    1    3    3    0    0  0.31944356549E+02  0.18569997039E+02  0.17940198331E+02  0.41074778414E+02  0.51100000000E-03 0. -1.
         22    1    1    0    0    0 -0.16629322500E+02  0.11701346317E+02  0.23036981163E+02  0.30727160193E+02  0.00000000000E+00 0. -1.
</event>
<event>
 5    1  0.1096978E-009  0.9118800E+02  0.7818608E-02  0.1130116E+00
         25   -1    0    0    0    0  0.00000000000E+00  0.00000000000E+00  0.99999998245E-14  0.12500000000E+03  0.12500000000E+03 0.  0.
        -11    1    3    3    0    0 -0.22771030894E+02 -0.18723042360E+02 -0.19267224661E+02  0.35217866340E+02  0.51100000000E-03 0.  1.
         23    2    1    0    0    0  0.22700374856E+02 -0.28104652122E+01  0.17810956511E+02  0.96009727405E+02  0.91528311747E+02 0.  0.
         11    1    3    3    0    0  0.45471405750E+02  0.15912577147E+02  0.37078181172E+02  0.60791861064E+02  0.51100000000E-03 0. -1.
         22    1    1    0    0    0 -0.22700374856E+02  0.28104652122E+01 -0.17810956511E+02  0.28990272595E+02  0.00000000000E+00 0. -1.
</event>
<event>
 5    1  0.1096978E-009  0.9118800E+02  0.7818608E-02  0.1130116E+00
         25   -1    0    0    0    0  0.00000000000E+00  0.00000000000E+00  0.99999998245E-14  0.12500000000E+03  0.12500000000E+03 0.  0.
        -11    1    3    3    0    0 -0.30296185657E+02  0.18445514129E+02  0.25250516178E+01  0.35559411451E+02  0.51100000000E-03 0. -1.
         23    2    1    0    0    0  0.11241123139E+02 -0.25633279390E+02 -0.49180227496E+01  0.96581435479E+02  0.92305790011E+02 0.  0.
         11    1    3    3    0    0  0.41537308796E+02 -0.44078793518E+02 -0.74430743674E+01  0.61022024027E+02  0.51100000000E-03 0.  1.
         22    1    1    0    0    0 -0.11241123139E+02  0.25633279390E+02  0.49180227496E+01  0.28418564521E+02  0.00000000000E+00 0.  1.
</event>
<event>
 5    1  0.1096978E-009  0.9118800E+02  0.7818608E-02  0.1130116E+00
         25   -1    0    0    0    0  0.00000000000E+00  0.00000000000E+00  0.99999998245E-14  0.12500000000E+03  0.12500000000E+03 0.  0.
        -11    1    3    3    0    0 -0.10322642545E+02  0.38885428812E+02  0.96650765022E-01  0.40232360913E+02  0.51100000000E-03 0. -1.
         23    2    1    0    0    0  0.24322100415E+02  0.37064365684E+01 -0.19754434735E+02  0.93447822067E+02  0.87959965420E+02 0.  0.
         11    1    3    3    0    0  0.34644742960E+02 -0.35178992243E+02 -0.19851085500E+02  0.53215461154E+02  0.51100000000E-03 0.  1.
         22    1    1    0    0    0 -0.24322100415E+02 -0.37064365684E+01  0.19754434735E+02  0.31552177933E+02  0.00000000000E+00 0.  1.
</event>
<event>
 5    1  0.1096978E-009  0.9118800E+02  0.7818608E-02  0.1130116E+00
         25   -1    0    0    0    0  0.00000000000E+00  0.00000000000E+00  0.99999998245E-14  0.12500000000E+03  0.12500000000E+03 0.  0.
        -11    1    3    3    0    0  0.33066515058E+02 -0.77109253289E+01 -0.17252785829E+02  0.38085580035E+02  0.51100000000E-03 0.  1.
         23    2    1    0    0    0 -0.38360389475E+01  0.27149832688E+02  0.10135282650E+02  0.95767268958E+02  0.91196585678E+02 0.  0.
         11    1    3    3    0    0 -0.36902554006E+02  0.34860758017E+02  0.27388068479E+02  0.57681688922E+02  0.51100000000E-03 0. -1.
         22    1    1    0    0    0  0.38360389475E+01 -0.27149832688E+02 -0.10135282650E+02  0.29232731042E+02  0.00000000000E+00 0. -1.
</event>
<event>
 5    1  0.1096978E-009  0.9118800E+02  0.7818608E-02  0.1130116E+00
         25   -1    0    0    0    0  0.00000000000E+00  0.00000000000E+00  0.99999998245E-14  0.12500000000E+03  0.12500000000E+03 0.  0.
        -11    1    3    3    0    0 -0.47121474038E+02 -0.12396677990E+02 -0.15270702668E+02  0.51061779257E+02  0.51100000000E-03 0. -1.
         23    2    1    0    0    0 -0.83872149099E+01  0.25082052580E+01 -0.28945553400E+02  0.94759604348E+02  0.89804794343E+02 0.  0.
         11    1    3    3    0    0  0.38734259128E+02  0.14904883248E+02 -0.13674850733E+02  0.43697825091E+02  0.51100000000E-03 0.  1.
         22    1    1    0    0    0  0.83872149099E+01 -0.25082052580E+01  0.28945553400E+02  0.30240395652E+02  0.00000000000E+00 0. -1.
</event>
<event>
 5    1  0.1096978E-009  0.9118800E+02  0.7818608E-02  0.1130116E+00
         25   -1    0    0    0    0  0.00000000000E+00  0.00000000000E+00  0.99999998245E-14  0.12500000000E+03  0.12500000000E+03 0.  0.
        -11    1    3    3    0    0  0.38719038530E+02 -0.40597949986E+02 -0.20985755738E+02  0.59897908410E+02  0.51100000000E-03 0.  1.
         23    2    1    0    0    0  0.24876987482E+02 -0.15996914516E+02  0.57489609840E+00  0.95417973603E+02  0.90716555274E+02 0.  0.
         11    1    3    3    0    0 -0.13842051048E+02  0.24601035470E+02  0.21560651837E+02  0.35520065192E+02  0.51100000000E-03 0. -1.
         22    1    1    0    0    0 -0.24876987482E+02  0.15996914516E+02 -0.57489609840E+00  0.29582026397E+02  0.00000000000E+00 0.  1.
</event>
<event>
 5    1  0.1096978E-009  0.9118800E+02  0.7818608E-02  0.1130116E+00
         25   -1    0    0    0    0  0.00000000000E+00  0.00000000000E+00  0.99999998245E-14  0.12500000000E+03  0.12500000000E+03 0.  0.
        -11    1    3    3    0    0 -0.56370471427E+02  0.20647740780E+02 -0.15411684219E+02  0.61979668109E+02  0.51100000000E-03 0. -1.
         23    2    1    0    0    0 -0.30957207943E+02  0.53064978423E+01 -0.72664325636E+01  0.92761689170E+02  0.86979436033E+02 0.  0.
         11    1    3    3    0    0  0.25413263485E+02 -0.15341242937E+02  0.81452516551E+01  0.30782021061E+02  0.51100000000E-03 0.  1.
         22    1    1    0    0    0  0.30957207943E+02 -0.53064978423E+01  0.72664325636E+01  0.32238310830E+02  0.00000000000E+00 0. -1.
</event>
<event>
 5    1  0.1096978E-009  0.9118800E+02  0.7818608E-02  0.1130116E+00
         25   -1    0    0    0    0  0.00000000000E+00  0.00000000000E+00  0.99999998245E-14  0.12500000000E+03  0.12500000000E+03 0.  0.
        -11    1    3    3    0    0  0.12237817326E+02 -0.24356490320E+02  0.18424668469E+02  0.32900930110E+02  0.51100000000E-03 0. -1.
         23    2    1    0    0    0 -0.21256796159E+02  0.20126058185E+02 -0.81691966058E+01  0.94608465419E+02  0.89594175897E+02 0.  0.
         11    1    3    3    0    0 -0.33494613485E+02  0.44482548505E+02 -0.26593865075E+02  0.61707535309E+02  0.51100000000E-03 0.  1.
         22    1    1    0    0    0  0.21256796159E+02 -0.20126058185E+02  0.81691966058E+01  0.30391534581E+02  0.00000000000E+00 0.  1.
</event>
<event>
 5    1  0.1096978E-009  0.9118800E+02  0.7818608E-02  0.1130116E+00
         25   -1    0    0    0    0  0.00000000000E+00  0.00000000000E+00  0.99999998245E-14  0.12500000000E+03  0.12500000000E+03 0.  0.
        -11    1    3    3    0    0 -0.29899084351E+02  0.34842091620E+02  0.11465594354E+02  0.47322155992E+02  0.51100000000E-03 0.  1.
         23    2    1    0    0    0 -0.25326036295E+02 -0.12936518486E+02  0.80667768987E+01  0.95439307950E+02  0.90745947499E+02 0.  0.
         11    1    3    3    0    0  0.45730480564E+01 -0.47778610106E+02 -0.33988174554E+01  0.48117151958E+02  0.51100000000E-03 0. -1.
         22    1    1    0    0    0  0.25326036295E+02  0.12936518486E+02 -0.80667768987E+01  0.29560692050E+02  0.00000000000E+00 0.  1.
</event>
<event>
 5    1  0.1096978E-009  0.9118800E+02  0.7818608E-02  0.1130116E+00
         25   -1    0    0    0    0  0.00000000000E+00  0.00000000000E+00  0.99999998245E-14  0.12500000000E+03  0.12500000000E+03 0.  0.
        -11    1    3    3    0    0  0.15510904282E+02  0.35796787408E+02 -0.46107276508E+02  0.60397674522E+02  0.51100000000E-03 0. -1.
         23    2    1    0    0    0  0.40548169693E+00  0.24613104042E+02 -0.16860172476E+02  0.95163198531E+02  0.90364814130E+02 0.  0.
         11    1    3    3    0    0 -0.15105422585E+02 -0.11183683367E+02  0.29247104032E+02  0.34765524009E+02  0.51100000000E-03 0.  1.
         22    1    1    0    0    0 -0.40548169693E+00 -0.24613104042E+02  0.16860172476E+02  0.29836801469E+02  0.00000000000E+00 0. -1.
</event>
<event>
 5    1  0.1096978E-009  0.9118800E+02  0.7818608E-02  0.1130116E+00
         25   -1    0    0    0    0  0.00000000000E+00  0.00000000000E+00  0.99999998245E-14  0.12500000000E+03  0.12500000000E+03 0.  0.
        -11    1    3    3    0    0  0.20107544256E+02 -0.39185890066E+02 -0.41810810497E+02  0.60728833275E+02  0.51100000000E-03 0. -1.
         23    2    1    0    0    0  0.17408630396E+02 -0.18586523278E+02 -0.12564658058E+02  0.96602995018E+02  0.92334981207E+02 0.  0.
         11    1    3    3    0    0 -0.26989138602E+01  0.20599366787E+02  0.29246152439E+02  0.35874161744E+02  0.51100000000E-03 0.  1.
         22    1    1    0    0    0 -0.17408630396E+02  0.18586523278E+02  0.12564658058E+02  0.28397004982E+02  0.00000000000E+00 0. -1.
</event>
<event>
 5    1  0.1096978E-009  0.9118800E+02  0.7818608E-02  0.1130116E+00
         25   -1    0    0    0    0  0.00000000000E+00  0.00000000000E+00  0.99999998245E-14  0.12500000000E+03  0.12500000000E+03 0.  0.
        -11    1    3    3    0    0 -0.14965399864E+02  0.38947139316E+02 -0.24001472104E+02  0.48134327848E+02  0.51100000000E-03 0.  1.
         23    2    1    0    0    0  0.22064071688E+02  0.16160363490E+02 -0.31002410286E+00  0.97649008747E+02  0.93740344499E+02 0.  0.
         11    1    3    3    0    0  0.37029471552E+02 -0.22786775826E+02  0.23691448001E+02  0.49514680899E+02  0.51100000000E-03 0. -1.
         22    1    1    0    0    0 -0.22064071688E+02 -0.16160363490E+02  0.31002410286E+00  0.27350991253E+02  0.00000000000E+00 0.  1.
</event>
<event>
 5    1  0.1096978E-009  0.9118800E+02  0.7818608E-02  0.1130116E+00
         25   -1    0    0    0    0  0.00000000000E+00  0.00000000000E+00  0.99999998245E-14  0.12500000000E+03  0.12500000000E+03 0.  0.
        -11    1    3    3    0    0 -0.33559449199E+01 -0.39463312875E+02  0.20040731857E+02  0.44387457271E+02  0.51100000000E-03 0.  1.
         23    2    1    0    0    0 -0.27639618003E+02 -0.32350138228E+01  0.24095477113E+02  0.88189596374E+02  0.80139872058E+02 0.  0.
         11    1    3    3    0    0 -0.24283673084E+02  0.36228299052E+02  0.40547452562E+01  0.43802139103E+02  0.51100000000E-03 0. -1.
         22    1    1    0    0    0  0.27639618003E+02  0.32350138228E+01 -0.24095477113E+02  0.36810403626E+02  0.00000000000E+00 0.  1.
</event>
<event>
 5    1  0.1096978E-009  0.9118800E+02  0.7818608E-02  0.1130116E+00
         25   -1    0    0    0    0  0.00000000000E+00  0.00000000000E+00  0.99999998245E-14  0.12500000000E+03  0.12500000000E+03 0.  0.
        -11    1    3    3    0    0  0.85212265647E+01 -0.59384730061E+02 -0.11671114937E+02  0.61117692943E+02  0.51100000000E-03 0.  1.
         23    2    1    0    0    0  0.12905181560E+02 -0.26484693962E+02 -0.32531172185E+01  0.95359394456E+02  0.90635802054E+02 0.  0.
         11    1    3    3    0    0  0.43839549951E+01  0.32900036098E+02  0.84179977189E+01  0.34241701513E+02  0.51100000000E-03 0. -1.
         22    1    1    0    0    0 -0.12905181560E+02  0.26484693962E+02  0.32531172185E+01  0.29640605544E+02  0.00000000000E+00 0.  1.
</event>
<event>
 5    1  0.1096978E-009  0.9118800E+02  0.7818608E-02  0.1130116E+00
         25   -1    0    0    0    0  0.00000000000E+00  0.00000000000E+00  0.99999998245E-14  0.12500000000E+03  0.12500000000E+03 0.  0.
        -11    1    3    3    0    0 -0.15071596666E+02 -0.11403334064E+02  0.37521268149E+02  0.42012315071E+02  0.51100000000E-03 0.  1.
         23    2    1    0    0    0  0.15891444719E+02  0.22535367074E+02  0.94487152494E+01  0.95851089141E+02  0.91311402821E+02 0.  0.
         11    1    3    3    0    0  0.30963041385E+02  0.33938701139E+02 -0.28072552900E+02  0.53838774070E+02  0.51100000000E-03 0. -1.
         22    1    1    0    0    0 -0.15891444719E+02 -0.22535367074E+02 -0.94487152494E+01  0.29148910859E+02  0.00000000000E+00 0. -1.
</event>
<event>
 5    1  0.1096978E-009  0.9118800E+02  0.7818608E-02  0.1130116E+00
         25   -1    0    0    0    0  0.00000000000E+00  0.00000000000E+00  0.99999998245E-14  0.12500000000E+03  0.12500000000E+03 0.  0.
        -11    1    3    3    0    0  0.18691058256E+01 -0.29359063124E+02 -0.24044926945E+02  0.37994824070E+02  0.51100000000E-03 0. -1.
         23    2    1    0    0    0  0.24180197736E+02  0.18707488779E+02 -0.10283099970E+02  0.92744857093E+02  0.86955242931E+02 0.  0.
         11    1    3    3    0    0  0.22311091911E+02  0.48066551902E+02  0.13761826975E+02  0.54750033023E+02  0.51100000000E-03 0.  1.
         22    1    1    0    0    0 -0.24180197736E+02 -0.18707488779E+02  0.10283099970E+02  0.32255142907E+02  0.00000000000E+00 0.  1.
</event>
<event>
 5    1  0.1096978E-009  0.9118800E+02  0.7818608E-02  0.1130116E+00
         25   -1    0    0    0    0  0.00000000000E+00  0.00000000000E+00  0.99999998245E-14  0.12500000000E+03  0.12500000000E+03 0.  0.
        -11    1    3    3    0    0 -0.44734248109E+02  0.21194378952E+02 -0.13407505725E+01  0.49519211074E+02  0.51100000000E-03 0. -1.
         23    2    1    0    0    0 -0.22654087204E+02 -0.18978022741E+02 -0.21732738410E+01  0.95367313092E+02  0.90646722351E+02 0.  0.
         11    1    3    3    0    0  0.22080160905E+02 -0.40172401693E+02 -0.83252326851E+00  0.45848102018E+02  0.51100000000E-03 0.  1.
         22    1    1    0    0    0  0.22654087204E+02  0.18978022741E+02  0.21732738410E+01  0.29632686908E+02  0.00000000000E+00 0. -1.
</event>
<event>
 5    1  0.1096978E-009  0.9118800E+02  0.7818608E-02  0.1130116E+00
         25   -1    0    0    0    0  0.00000000000E+00  0.00000000000E+00  0.99999998245E-14  0.12500000000E+03  0.12500000000E+03 0.  0.
        -11    1    3    3    0    0 -0.28721915483E+02  0.14547013068E+02  0.16051671900E+02  0.35975271914E+02  0.51100000000E-03 0.  1.
         23    2    1    0    0    0  0.23093442016E+02 -0.14967378130E+02  0.91206886482E+01  0.96008338550E+02  0.91526414971E+02 0.  0.
         11    1    3    3    0    0  0.51815357499E+02 -0.29514391198E+02 -0.69309832521E+01  0.60033066636E+02  0.51100000000E-03 0. -1.
         22    1    1    0    0    0 -0.23093442016E+02  0.14967378130E+02 -0.91206886482E+01  0.28991661450E+02  0.00000000000E+00 0. -1.
</event>
<event>
 5    1  0.1096978E-009  0.9118800E+02  0.7818608E-02  0.1130116E+00
         25   -1    0    0    0    0  0.00000000000E+00  0.00000000000E+00  0.99999998245E-14  0.12500000000E+03  0.12500000000E+03 0.  0.
        -11    1    3    3    0    0  0.19309994452E+02  0.66461501765E+01 -0.36107497921E+02  0.41482509619E+02  0.51100000000E-03 0. -1.
         23    2    1    0    0    0 -0.25789005420E+02  0.98493605089E+01 -0.36175826503E+01  0.97158132117E+02  0.93083473448E+02 0.  0.
         11    1    3    3    0    0 -0.45098999872E+02  0.32032103324E+01  0.32489915271E+02  0.55675622498E+02  0.51100000000E-03 0.  1.
         22    1    1    0    0    0  0.25789005420E+02 -0.98493605089E+01  0.36175826503E+01  0.27841867883E+02  0.00000000000E+00 0. -1.
</event>
<event>
 5    1  0.1096978E-009  0.9118800E+02  0.7818608E-02  0.1130116E+00
         25   -1    0    0    0    0  0.00000000000E+00  0.00000000000E+00  0.99999998245E-14  0.12500000000E+03  0.12500000000E+03 0.  0.
        -11    1    3    3    0    0  0.24703950909E+02 -0.29623758980E+02 -0.46567970500E+02  0.60468406324E+02  0.51100000000E-03 0.  1.
         23    2    1    0    0    0  0.14695373190E+02 -0.32794671927E+01 -0.24418944892E+02  0.96312132043E+02  0.91940377478E+02 0.  0.
         11    1    3    3    0    0 -0.10008577719E+02  0.26344291788E+02  0.22149025608E+02  0.35843725719E+02  0.51100000000E-03 0. -1.
         22    1    1    0    0    0 -0.14695373190E+02  0.32794671927E+01  0.24418944892E+02  0.28687867957E+02  0.00000000000E+00 0.  1.
</event>
<event>
 5    1  0.1096978E-009  0.9118800E+02  0.7818608E-02  0.1130116E+00
         25   -1    0    0    0    0  0.00000000000E+00  0.00000000000E+00  0.99999998245E-14  0.12500000000E+03  0.12500000000E+03 0.  0.
        -11    1    3    3    0    0 -0.23251183214E+02  0.16461212861E+02  0.48782607493E+02  0.56491874139E+02  0.51100000000E-03 0. -1.
         23    2    1    0    0    0 -0.25815589504E+01  0.25109226773E+02  0.21135480439E+02  0.92078179741E+02  0.85991539906E+02 0.  0.
         11    1    3    3    0    0  0.20669624263E+02  0.86480139116E+01 -0.27647127054E+02  0.35586305602E+02  0.51100000000E-03 0.  1.
         22    1    1    0    0    0  0.25815589504E+01 -0.25109226773E+02 -0.21135480439E+02  0.32921820259E+02  0.00000000000E+00 0. -1.
</event>
<event>
 5    1  0.1096978E-009  0.9118800E+02  0.7818608E-02  0.1130116E+00
         25   -1    0    0    0    0  0.00000000000E+00  0.00000000000E+00  0.99999998245E-14  0.12500000000E+03  0.12500000000E+03 0.  0.
        -11    1    3    3    0    0  0.55825597985E+02  0.53999217956E+01  0.12508945709E+02  0.57464165084E+02  0.51100000000E-03 0.  1.
         23    2    1    0    0    0  0.22300631291E+02 -0.12950320850E+02  0.13892751045E+02  0.95707722900E+02  0.91114931406E+02 0.  0.
         11    1    3    3    0    0 -0.33524966694E+02 -0.18350242645E+02  0.13838053358E+01  0.38243557816E+02  0.51100000000E-03 0. -1.
         22    1    1    0    0    0 -0.22300631291E+02  0.12950320850E+02 -0.13892751045E+02  0.29292277100E+02  0.00000000000E+00 0.  1.
</event>
<event>
 5    1  0.1096978E-009  0.9118800E+02  0.7818608E-02  0.1130116E+00
         25   -1    0    0    0    0  0.00000000000E+00  0.00000000000E+00  0.99999998245E-14  0.12500000000E+03  0.12500000000E+03 0.  0.
        -11    1    3    3    0    0 -0.34750895271E+02 -0.75169653232E+01 -0.56085870330E+01  0.35994245909E+02  0.51100000000E-03 0. -1.
         23    2    1    0    0    0  0.40057805867E+01 -0.27578892247E+02  0.23577883952E+02  0.88495778499E+02  0.80616032058E+02 0.  0.
         11    1    3    3    0    0  0.38756675858E+02 -0.20061926924E+02  0.29186470985E+02  0.52501532590E+02  0.51100000000E-03 0.  1.
         22    1    1    0    0    0 -0.40057805867E+01  0.27578892247E+02 -0.23577883952E+02  0.36504221501E+02  0.00000000000E+00 0. -1.
</event>
<event>
 5    1  0.1096978E-009  0.9118800E+02  0.7818608E-02  0.1130116E+00
         25   -1    0    0    0    0  0.00000000000E+00  0.00000000000E+00  0.99999998245E-14  0.12500000000E+03  0.12500000000E+03 0.  0.
        -11    1    3    3    0    0  0.26361681954E+02 -0.20156573824E+02 -0.51928161114E+02  0.61625965799E+02  0.51100000000E-03 0.  1.
         23    2    1    0    0    0  0.82925210475E+01 -0.15580147915E+02 -0.23791849230E+02  0.95376377599E+02  0.90659221261E+02 0.  0.
         11    1    3    3    0    0 -0.18069160907E+02  0.45764259096E+01  0.28136311883E+02  0.33750411799E+02  0.51100000000E-03 0. -1.
         22    1    1    0    0    0 -0.82925210475E+01  0.15580147915E+02  0.23791849230E+02  0.29623622401E+02  0.00000000000E+00 0.  1.
</event>
<event>
 5    1  0.1096978E-009  0.9118800E+02  0.7818608E-02  0.1130116E+00
         25   -1    0    0    0    0  0.00000000000E+00  0.00000000000E+00  0.99999998245E-14  0.12500000000E+03  0.12500000000E+03 0.  0.
        -11    1    3    3    0    0  0.53284244982E+02 -0.20671223955E+02  0.21766611845E+02  0.61157956592E+02  0.51100000000E-03 0. -1.
         23    2    1    0    0    0  0.24709321741E+02 -0.16583105102E+01  0.14702348221E+02  0.96199659415E+02  0.91787334931E+02 0.  0.
         11    1    3    3    0    0 -0.28574923241E+02  0.19012913445E+02 -0.70642636237E+01  0.35041702823E+02  0.51100000000E-03 0.  1.
         22    1    1    0    0    0 -0.24709321741E+02  0.16583105102E+01 -0.14702348221E+02  0.28800340585E+02  0.00000000000E+00 0. -1.
</event>
<event>
 5    1  0.1096978E-009  0.9118800E+02  0.7818608E-02  0.1130116E+00
         25   -1    0    0    0    0  0.00000000000E+00  0.00000000000E+00  0.99999998245E-14  0.12500000000E+03  0.12500000000E+03 0.  0.
        -11    1    3    3    0    0 -0.86160915514E+01  0.31857740972E+02  0.54141150811E+01  0.33443464771E+02  0.51100000000E-03 0. -1.
         23    2    1    0    0    0  0.12191834143E+02 -0.19107702154E+02 -0.20637635611E+02  0.94346173078E+02  0.89227480461E+02 0.  0.
         11    1    3    3    0    0  0.20807925695E+02 -0.50965443126E+02 -0.26051750692E+02  0.60902708307E+02  0.51100000000E-03 0.  1.
         22    1    1    0    0    0 -0.12191834143E+02  0.19107702154E+02  0.20637635611E+02  0.30653826922E+02  0.00000000000E+00 0.  1.
</event>
<event>
 5    1  0.1096978E-009  0.9118800E+02  0.7818608E-02  0.1130116E+00
         25   -1    0    0    0    0  0.00000000000E+00  0.00000000000E+00  0.99999998245E-14  0.12500000000E+03  0.12500000000E+03 0.  0.
        -11    1    3    3    0    0  0.16056462916E+01  0.41671470901E+02 -0.51728340340E+00  0.41705601176E+02  0.51100000000E-03 0.  1.
         23    2    1    0    0    0  0.31625783437E+01 -0.93194725719E+01 -0.24883764157E+02  0.98240773752E+02  0.94526152138E+02 0.  0.
         11    1    3    3    0    0  0.15569320521E+01 -0.50990943473E+02 -0.24366480753E+02  0.56535172576E+02  0.51100000000E-03 0. -1.
         22    1    1    0    0    0 -0.31625783437E+01  0.93194725719E+01  0.24883764157E+02  0.26759226248E+02  0.00000000000E+00 0. -1.
</event>
<event>
 5    1  0.1096978E-009  0.9118800E+02  0.7818608E-02  0.1130116E+00
         25   -1    0    0    0    0  0.00000000000E+00  0.00000000000E+00  0.99999998245E-14  0.12500000000E+03  0.12500000000E+03 0.  0.
        -11    1    3    3    0    0 -0.95092392976E+01  0.12534580256E+00  0.49357592008E+02  0.50265427808E+02  0.51100000000E-03 0.  1.
         23    2    1    0    0    0  0.15571112840E+02 -0.18762737387E+02  0.17554547778E+02  0.94955665808E+02  0.90077280443E+02 0.  0.
         11    1    3    3    0    0  0.25080352138E+02 -0.18888083190E+02 -0.31803044230E+02  0.44690238000E+02  0.51100000000E-03 0. -1.
         22    1    1    0    0    0 -0.15571112840E+02  0.18762737387E+02 -0.17554547778E+02  0.30044334192E+02  0.00000000000E+00 0.  1.
</event>
<event>
 5    1  0.1096978E-009  0.9118800E+02  0.7818608E-02  0.1130116E+00
         25   -1    0    0    0    0  0.00000000000E+00  0.00000000000E+00  0.99999998245E-14  0.12500000000E+03  0.12500000000E+03 0.  0.
        -11    1    3    3    0    0 -0.55572065918E+01 -0.26055395692E+02  0.31183762841E+02  0.41014549308E+02  0.51100000000E-03 0. -1.
         23    2    1    0    0    0  0.28304589457E+01  0.25220670719E+02  0.15388853395E+02  0.95319862901E+02  0.90581265863E+02 0.  0.
         11    1    3    3    0    0  0.83876655375E+01  0.51276066411E+02 -0.15794909446E+02  0.54305313593E+02  0.51100000000E-03 0.  1.
         22    1    1    0    0    0 -0.28304589457E+01 -0.25220670719E+02 -0.15388853395E+02  0.29680137099E+02  0.00000000000E+00 0.  1.
</event>
<event>
 5    1  0.1096978E-009  0.9118800E+02  0.7818608E-02  0.1130116E+00
         25   -1    0    0    0    0  0.00000000000E+00  0.00000000000E+00  0.99999998245E-14  0.12500000000E+03  0.12500000000E+03 0.  0.
        -11    1    3    3    0    0  0.24967677169E+01  0.45057755105E+02  0.36425458203E+02  0.57993526791E+02  0.51100000000E-03 0.  1.
         23    2    1    0    0    0  0.17119013282E+02  0.20552237194E+02  0.11493659413E+02  0.95887128687E+02  0.91360725542E+02 0.  0.
         11    1    3    3    0    0  0.14622245565E+02 -0.24505517912E+02 -0.24931798789E+02  0.37893601895E+02  0.51100000000E-03 0. -1.
         22    1    1    0    0    0 -0.17119013282E+02 -0.20552237194E+02 -0.11493659413E+02  0.29112871313E+02  0.00000000000E+00 0.  1.
</event>
<event>
 5    1  0.1096978E-009  0.9118800E+02  0.7818608E-02  0.1130116E+00
         25   -1    0    0    0    0  0.00000000000E+00  0.00000000000E+00  0.99999998245E-14  0.12500000000E+03  0.12500000000E+03 0.  0.
        -11    1    3    3    0    0  0.37427634164E+02 -0.13768103545E+02 -0.83800841582E+01  0.40750635395E+02  0.51100000000E-03 0. -1.
         23    2    1    0    0    0 -0.12894288265E+02 -0.27185088973E+02  0.49453519828E+01  0.94508226707E+02  0.89454215533E+02 0.  0.
         11    1    3    3    0    0 -0.50321922430E+02 -0.13416985428E+02  0.13325436141E+02  0.53757591311E+02  0.51100000000E-03 0.  1.
         22    1    1    0    0    0  0.12894288265E+02  0.27185088973E+02 -0.49453519828E+01  0.30491773293E+02  0.00000000000E+00 0.  1.
</event>
<event>
 5    1  0.1096978E-009  0.9118800E+02  0.7818608E-02  0.1130116E+00
         25   -1    0    0    0    0  0.00000000000E+00  0.00000000000E+00  0.99999998245E-14  0.12500000000E+03  0.12500000000E+03 0.  0.
        -11    1    3    3    0    0  0.15509709739E+02  0.59952744498E+01  0.30153619925E+02  0.34434506048E+02  0.51100000000E-03 0. -1.
         23    2    1    0    0    0  0.41457855423E+01 -0.94058059316E+01 -0.27743648778E+02  0.95413402181E+02  0.90710256010E+02 0.  0.
         11    1    3    3    0    0 -0.11363924197E+02 -0.15401080381E+02 -0.57897268703E+02  0.60978896133E+02  0.51100000000E-03 0.  1.
         22    1    1    0    0    0 -0.41457855423E+01  0.94058059316E+01  0.27743648778E+02  0.29586597819E+02  0.00000000000E+00 0.  1.
</event>
<event>
 5    1  0.1096978E-009  0.9118800E+02  0.7818608E-02  0.1130116E+00
         25   -1    0    0    0    0  0.00000000000E+00  0.00000000000E+00  0.99999998245E-14  0.12500000000E+03  0.12500000000E+03 0.  0.
        -11    1    3    3    0    0 -0.24269256064E+02  0.24837719150E+02 -0.96630799625E-01  0.34726336119E+02  0.51100000000E-03 0.  1.
         23    2    1    0    0    0  0.20604628017E+02  0.89409062925E+01 -0.27371540955E+02  0.89592490129E+02  0.82298982571E+02 0.  0.
         11    1    3    3    0    0  0.44873884081E+02 -0.15896812858E+02 -0.27274910155E+02  0.54866154009E+02  0.51100000000E-03 0. -1.
         22    1    1    0    0    0 -0.20604628017E+02 -0.89409062925E+01  0.27371540955E+02  0.35407509871E+02  0.00000000000E+00 0. -1.
</event>
<event>
 5    1  0.1096978E-009  0.9118800E+02  0.7818608E-02  0.1130116E+00
         25   -1    0    0    0    0  0.00000000000E+00  0.00000000000E+00  0.99999998245E-14  0.12500000000E+03  0.12500000000E+03 0.  0.
        -11    1    3    3    0    0 -0.30177085055E+02 -0.28933035987E+02 -0.18567538259E+02  0.45744185544E+02  0.51100000000E-03 0. -1.
         23    2    1    0    0    0 -0.23445967031E+02  0.17524135867E+02 -0.15090905322E+01  0.95689830056E+02  0.91090381018E+02 0.  0.
         11    1    3    3    0    0  0.67311180241E+01  0.46457171855E+02  0.17058447727E+02  0.49945644512E+02  0.51100000000E-03 0.  1.
         22    1    1    0    0    0  0.23445967031E+02 -0.17524135867E+02  0.15090905322E+01  0.29310169944E+02  0.00000000000E+00 0. -1.
</event>
<event>
 5    1  0.1096978E-009  0.9118800E+02  0.7818608E-02  0.1130116E+00
         25   -1    0    0    0    0  0.00000000000E+00  0.00000000000E+00  0.99999998245E-14  0.12500000000E+03  0.12500000000E+03 0.  0.
        -11    1    3    3    0    0  0.34085127913E+02 -0.10507295314E+02 -0.30992527782E+01  0.35802298358E+02  0.51100000000E-03 0.  1.
         23    2    1    0    0    0 -0.15157541718E+02  0.44672332233E+01  0.25737027114E+02  0.94798976701E+02  0.89859580320E+02 0.  0.
         11    1    3    3    0    0 -0.49242669631E+02  0.14974528538E+02  0.28836279892E+02  0.58996678344E+02  0.51100000000E-03 0. -1.
         22    1    1    0    0    0  0.15157541718E+02 -0.44672332233E+01 -0.25737027114E+02  0.30201023299E+02  0.00000000000E+00 0. -1.
</event>
<event>
 5    1  0.1096978E-009  0.9118800E+02  0.7818608E-02  0.1130116E+00
         25   -1    0    0    0    0  0.00000000000E+00  0.00000000000E+00  0.99999998245E-14  0.12500000000E+03  0.12500000000E+03 0.  0.
        -11    1    3    3    0    0 -0.12302691958E+02  0.51341507002E+02  0.23448142403E+02  0.57767828010E+02  0.51100000000E-03 0.  1.
         23    2    1    0    0    0 -0.19622219394E+02  0.14488540603E+02  0.15277886868E+02  0.96218701734E+02  0.91813263930E+02 0.  0.
         11    1    3    3    0    0 -0.73195274359E+01 -0.36852966399E+02 -0.81702555345E+01  0.38450873723E+02  0.51100000000E-03 0. -1.
         22    1    1    0    0    0  0.19622219394E+02 -0.14488540603E+02 -0.15277886868E+02  0.28781298266E+02  0.00000000000E+00 0.  1.
</event>
<event>
 5    1  0.1096978E-009  0.9118800E+02  0.7818608E-02  0.1130116E+00
         25   -1    0    0    0    0  0.00000000000E+00  0.00000000000E+00  0.99999998245E-14  0.12500000000E+03  0.12500000000E+03 0.  0.
        -11    1    3    3    0    0 -0.12268080216E+02 -0.48626579278E+02 -0.23472063948E+02  0.55371362551E+02  0.51100000000E-03 0. -1.
         23    2    1    0    0    0 -0.66796108262E+01 -0.29609103575E+02  0.89344246150E+01  0.93359201045E+02  0.87833935704E+02 0.  0.
         11    1    3    3    0    0  0.55884693898E+01  0.19017475703E+02  0.32406488563E+02  0.37987838494E+02  0.51100000000E-03 0.  1.
         22    1    1    0    0    0  0.66796108262E+01  0.29609103575E+02 -0.89344246150E+01  0.31640798955E+02  0.00000000000E+00 0. -1.
</event>
<event>
 5    1  0.1096978E-009  0.9118800E+02  0.7818608E-02  0.1130116E+00
         25   -1    0    0    0    0  0.00000000000E+00  0.00000000000E+00  0.99999998245E-14  0.12500000000E+03  0.12500000000E+03 0.  0.
        -11    1    3    3    0    0 -0.93546976032E+01 -0.84384887039E+01  0.33020659538E+02  0.35342360072E+02  0.51100000000E-03 0.  1.
         23    2    1    0    0    0 -0.44353950454E+01  0.22370991859E+02 -0.18540398782E+02  0.95608157714E+02  0.90978236016E+02 0.  0.
         11    1    3    3    0    0  0.49193025578E+01  0.30809480563E+02 -0.51561058320E+02  0.60265797643E+02  0.51100000000E-03 0. -1.
         22    1    1    0    0    0  0.44353950454E+01 -0.22370991859E+02  0.18540398782E+02  0.29391842286E+02  0.00000000000E+00 0. -1.
</event>
<event>
 5    1  0.1096978E-009  0.9118800E+02  0.7818608E-02  0.1130116E+00
         25   -1    0    0    0    0  0.00000000000E+00  0.00000000000E+00  0.99999998245E-14  0.12500000000E+03  0.12500000000E+03 0.  0.
        -11    1    3    3    0    0  0.10964906967E+02 -0.15516394481E+02 -0.33375890773E+02  0.38404918534E+02  0.51100000000E-03 0.  1.
         23    2    1    0    0    0 -0.18164890104E+02  0.21411336461E+02  0.13804965300E+01  0.96887470192E+02  0.92719294368E+02 0.  0.
         11    1    3    3    0    0 -0.29129797071E+02  0.36927730942E+02  0.34756387302E+02  0.58482551658E+02  0.51100000000E-03 0. -1.
         22    1    1    0    0    0  0.18164890104E+02 -0.21411336461E+02 -0.13804965300E+01  0.28112529808E+02  0.00000000000E+00 0. -1.
</event>
<event>
 5    1  0.1096978E-009  0.9118800E+02  0.7818608E-02  0.1130116E+00
         25   -1    0    0    0    0  0.00000000000E+00  0.00000000000E+00  0.99999998245E-14  0.12500000000E+03  0.12500000000E+03 0.  0.
        -11    1    3    3    0    0  0.31085351004E+02 -0.88222020952E+01  0.14384455395E+02  0.35370084169E+02  0.51100000000E-03 0.  1.
         23    2    1    0    0    0 -0.16438265858E+02 -0.10501737389E+02 -0.22258548450E+02  0.95403614213E+02  0.90696767049E+02 0.  0.
         11    1    3    3    0    0 -0.47523616862E+02 -0.16795352939E+01 -0.36643003845E+02  0.60033530043E+02  0.51100000000E-03 0. -1.
         22    1    1    0    0    0  0.16438265858E+02  0.10501737389E+02  0.22258548450E+02  0.29596385787E+02  0.00000000000E+00 0. -1.
</event>
<event>
 5    1  0.1096978E-009  0.9118800E+02  0.7818608E-02  0.1130116E+00
         25   -1    0    0    0    0  0.00000000000E+00  0.00000000000E+00  0.99999998245E-14  0.12500000000E+03  0.12500000000E+03 0.  0.
        -11    1    3    3    0    0 -0.60866293515E+02  0.56860102017E+01 -0.27716840690E+01  0.61194106180E+02  0.51100000000E-03 0.  1.
         23    2    1    0    0    0 -0.28205003610E+02 -0.63879080839E+01 -0.16473697457E+01  0.96033788211E+02  0.91561165636E+02 0.  0.
         11    1    3    3    0    0  0.32661289905E+02 -0.12073918286E+02  0.11243143233E+01  0.34839682031E+02  0.51100000000E-03 0. -1.
         22    1    1    0    0    0  0.28205003610E+02  0.63879080839E+01  0.16473697457E+01  0.28966211789E+02  0.00000000000E+00 0.  1.
</event>
<event>
 5    1  0.1096978E-009  0.9118800E+02  0.7818608E-02  0.1130116E+00
         25   -1    0    0    0    0  0.00000000000E+00  0.00000000000E+00  0.99999998245E-14  0.12500000000E+03  0.12500000000E+03 0.  0.
        -11    1    3    3    0    0  0.23919223502E+02  0.32156125467E+02  0.32379997923E+02  0.51522906786E+02  0.51100000000E-03 0. -1.
         23    2    1    0    0    0 -0.94457029547E+01  0.29357036448E+02  0.74312157916E+01  0.93278085470E+02  0.87718420913E+02 0.  0.
         11    1    3    3    0    0 -0.33364926457E+02 -0.27990890190E+01 -0.24948782131E+02  0.41755178684E+02  0.51100000000E-03 0.  1.
         22    1    1    0    0    0  0.94457029547E+01 -0.29357036448E+02 -0.74312157916E+01  0.31721914530E+02  0.00000000000E+00 0. -1.
</event>
<event>
 5    1  0.1096978E-009  0.9118800E+02  0.7818608E-02  0.1130116E+00
         25   -1    0    0    0    0  0.00000000000E+00  0.00000000000E+00  0.99999998245E-14  0.12500000000E+03  0.12500000000E+03 0.  0.
        -11    1    3    3    0    0 -0.33943010420E+02  0.11326077961E+02 -0.19202360064E+01  0.35834275560E+02  0.51100000000E-03 0. -1.
         23    2    1    0    0    0  0.25469125020E+02  0.59158290758E+01 -0.11815214981E+02  0.96307271514E+02  0.91933768978E+02 0.  0.
         11    1    3    3    0    0  0.59412135439E+02 -0.54102488850E+01 -0.98949789748E+01  0.60472995954E+02  0.51100000000E-03 0.  1.
         22    1    1    0    0    0 -0.25469125020E+02 -0.59158290758E+01  0.11815214981E+02  0.28692728486E+02  0.00000000000E+00 0.  1.
</event>
<event>
 5    1  0.1096978E-009  0.9118800E+02  0.7818608E-02  0.1130116E+00
         25   -1    0    0    0    0  0.00000000000E+00  0.00000000000E+00  0.99999998245E-14  0.12500000000E+03  0.12500000000E+03 0.  0.
        -11    1    3    3    0    0  0.15235461362E+02 -0.42070753192E+02 -0.21335363039E+02  0.49570810698E+02  0.51100000000E-03 0.  1.
         23    2    1    0    0    0 -0.12448950420E+02 -0.30557485964E+01 -0.24325811110E+02  0.97503471997E+02  0.93546074206E+02 0.  0.
         11    1    3    3    0    0 -0.27684411782E+02  0.39015004595E+02 -0.29904480712E+01  0.47932661299E+02  0.51100000000E-03 0. -1.
         22    1    1    0    0    0  0.12448950420E+02  0.30557485964E+01  0.24325811110E+02  0.27496528003E+02  0.00000000000E+00 0.  1.
</event>
<event>
 5    1  0.1096978E-009  0.9118800E+02  0.7818608E-02  0.1130116E+00
         25   -1    0    0    0    0  0.00000000000E+00  0.00000000000E+00  0.99999998245E-14  0.12500000000E+03  0.12500000000E+03 0.  0.
        -11    1    3    3    0    0  0.19755182615E+02 -0.38288004825E+02 -0.21395895888E+02  0.48104292062E+02  0.51100000000E-03 0.  1.
         23    2    1    0    0    0  0.56458115235E+00 -0.23749971476E+02  0.18627713676E+02  0.94811068025E+02  0.89876398495E+02 0.  0.
         11    1    3    3    0    0 -0.19190601463E+02  0.14538033349E+02  0.40023609563E+02  0.46706775964E+02  0.51100000000E-03 0. -1.
         22    1    1    0    0    0 -0.56458115235E+00  0.23749971476E+02 -0.18627713676E+02  0.30188931975E+02  0.00000000000E+00 0. -1.
</event>
<event>
 5    1  0.1096978E-009  0.9118800E+02  0.7818608E-02  0.1130116E+00
         25   -1    0    0    0    0  0.00000000000E+00  0.00000000000E+00  0.99999998245E-14  0.12500000000E+03  0.12500000000E+03 0.  0.
        -11    1    3    3    0    0 -0.36430980173E+02  0.17237914336E+02 -0.12695860349E+02  0.42255731886E+02  0.51100000000E-03 0.  1.
         23    2    1    0    0    0  0.16958018385E+02  0.19147587800E+02 -0.14287558902E+02  0.95702579542E+02  0.91107874992E+02 0.  0.
         11    1    3    3    0    0  0.53388998558E+02  0.19096734644E+01 -0.15916985537E+01  0.53446847656E+02  0.51100000000E-03 0. -1.
         22    1    1    0    0    0 -0.16958018385E+02 -0.19147587800E+02  0.14287558902E+02  0.29297420458E+02  0.00000000000E+00 0. -1.
</event>
<event>
 5    1  0.1096978E-009  0.9118800E+02  0.7818608E-02  0.1130116E+00
         25   -1    0    0    0    0  0.00000000000E+00  0.00000000000E+00  0.99999998245E-14  0.12500000000E+03  0.12500000000E+03 0.  0.
        -11    1    3    3    0    0  0.86587584960E+01 -0.12986615204E+02 -0.48481110814E+02  0.50931761987E+02  0.51100000000E-03 0.  1.
         23    2    1    0    0    0  0.17294956095E+02 -0.23054850716E+02 -0.58334037979E+01  0.95594724151E+02  0.90959777032E+02 0.  0.
         11    1    3    3    0    0  0.86361975990E+01 -0.10068235512E+02  0.42647707016E+02  0.44662962164E+02  0.51100000000E-03 0. -1.
         22    1    1    0    0    0 -0.17294956095E+02  0.23054850716E+02  0.58334037979E+01  0.29405275849E+02  0.00000000000E+00 0. -1.
</event>
<event>
 5    1  0.1096978E-009  0.9118800E+02  0.7818608E-02  0.1130116E+00
         25   -1    0    0    0    0  0.00000000000E+00  0.00000000000E+00  0.99999998245E-14  0.12500000000E+03  0.12500000000E+03 0.  0.
        -11    1    3    3    0    0 -0.21420829417E+01 -0.25284249839E+02 -0.23426241456E+02  0.34535063317E+02  0.51100000000E-03 0.  1.
         23    2    1    0    0    0 -0.13709543651E+02  0.27107782739E+02  0.32403331801E+01  0.94450315366E+02  0.89373255739E+02 0.  0.
         11    1    3    3    0    0 -0.11567460709E+02  0.52392032578E+02  0.26666574636E+02  0.59915252049E+02  0.51100000000E-03 0. -1.
         22    1    1    0    0    0  0.13709543651E+02 -0.27107782739E+02 -0.32403331801E+01  0.30549684634E+02  0.00000000000E+00 0. -1.
</event>
<event>
 5    1  0.1096978E-009  0.9118800E+02  0.7818608E-02  0.1130116E+00
         25   -1    0    0    0    0  0.00000000000E+00  0.00000000000E+00  0.99999998245E-14  0.12500000000E+03  0.12500000000E+03 0.  0.
        -11    1    3    3    0    0  0.25153677823E+02 -0.23748906062E+02  0.43337936552E+02  0.55451733896E+02  0.51100000000E-03 0.  1.
         23    2    1    0    0    0  0.20973075329E+02 -0.19677710589E+02  0.31410933151E+01  0.96069935189E+02  0.91610500475E+02 0.  0.
         11    1    3    3    0    0 -0.41806024940E+01  0.40711954735E+01 -0.40196843237E+02  0.40618201293E+02  0.51100000000E-03 0. -1.
         22    1    1    0    0    0 -0.20973075329E+02  0.19677710589E+02 -0.31410933151E+01  0.28930064811E+02  0.00000000000E+00 0.  1.
</event>
<event>
 5    1  0.1096978E-009  0.9118800E+02  0.7818608E-02  0.1130116E+00
         25   -1    0    0    0    0  0.00000000000E+00  0.00000000000E+00  0.99999998245E-14  0.12500000000E+03  0.12500000000E+03 0.  0.
        -11    1    3    3    0    0  0.37372776899E+02  0.13282796436E+02  0.41338164148E+02  0.57288750639E+02  0.51100000000E-03 0.  1.
         23    2    1    0    0    0  0.21553750884E+02  0.20460768606E+02  0.90831763959E+01  0.93924103834E+02  0.88634225661E+02 0.  0.
         11    1    3    3    0    0 -0.15819026016E+02  0.71779721699E+01 -0.32254987752E+02  0.36635353195E+02  0.51100000000E-03 0. -1.
         22    1    1    0    0    0 -0.21553750884E+02 -0.20460768606E+02 -0.90831763959E+01  0.31075896166E+02  0.00000000000E+00 0.  1.
</event>
<event>
 5    1  0.1096978E-009  0.9118800E+02  0.7818608E-02  0.1130116E+00
         25   -1    0    0    0    0  0.00000000000E+00  0.00000000000E+00  0.99999998245E-14  0.12500000000E+03  0.12500000000E+03 0.  0.
        -11    1    3    3    0    0  0.33066177082E+02  0.36546509834E+01 -0.48233001722E+02  0.58593096829E+02  0.51100000000E-03 0. -1.
         23    2    1    0    0    0  0.29499774435E+02  0.55289688548E+01 -0.16170761214E+02  0.90907483130E+02  0.84272598052E+02 0.  0.
         11    1    3    3    0    0 -0.35664026475E+01  0.18743178714E+01  0.32062240508E+02  0.32314386300E+02  0.51100000000E-03 0.  1.
         22    1    1    0    0    0 -0.29499774435E+02 -0.55289688548E+01  0.16170761214E+02  0.34092516870E+02  0.00000000000E+00 0. -1.
</event>
<event>
 5    1  0.1096978E-009  0.9118800E+02  0.7818608E-02  0.1130116E+00
         25   -1    0    0    0    0  0.00000000000E+00  0.00000000000E+00  0.99999998245E-14  0.12500000000E+03  0.12500000000E+03 0.  0.
        -11    1    3    3    0    0 -0.41439088190E+02 -0.18977730558E+02  0.30217042296E+02  0.54684750457E+02  0.51100000000E-03 0.  1.
         23    2    1    0    0    0 -0.16124867516E+02  0.12638609979E+02  0.19807473180E+02  0.96502950883E+02  0.92199445338E+02 0.  0.
         11    1    3    3    0    0  0.25314220674E+02  0.31616340538E+02 -0.10409569116E+02  0.41818200425E+02  0.51100000000E-03 0. -1.
         22    1    1    0    0    0  0.16124867516E+02 -0.12638609979E+02 -0.19807473180E+02  0.28497049117E+02  0.00000000000E+00 0.  1.
</event>
<event>
 5    1  0.1096978E-009  0.9118800E+02  0.7818608E-02  0.1130116E+00
         25   -1    0    0    0    0  0.00000000000E+00  0.00000000000E+00  0.99999998245E-14  0.12500000000E+03  0.12500000000E+03 0.  0.
        -11    1    3    3    0    0  0.20442165162E+02  0.32264545235E+02  0.25424554351E+01  0.38279852085E+02  0.51100000000E-03 0. -1.
         23    2    1    0    0    0 -0.20109986322E+01 -0.83350848177E+01 -0.29247828273E+02  0.94521266215E+02  0.89472434603E+02 0.  0.
         11    1    3    3    0    0 -0.22453163794E+02 -0.40599630053E+02 -0.31790283708E+02  0.56241414130E+02  0.51100000000E-03 0.  1.
         22    1    1    0    0    0  0.20109986322E+01  0.83350848177E+01  0.29247828273E+02  0.30478733785E+02  0.00000000000E+00 0.  1.
</event>
<event>
 5    1  0.1096978E-009  0.9118800E+02  0.7818608E-02  0.1130116E+00
         25   -1    0    0    0    0  0.00000000000E+00  0.00000000000E+00  0.99999998245E-14  0.12500000000E+03  0.12500000000E+03 0.  0.
        -11    1    3    3    0    0 -0.38943213911E+02 -0.27771391365E+02  0.30444272833E+02  0.56698129040E+02  0.51100000000E-03 0.  1.
         23    2    1    0    0    0 -0.27879170178E+02 -0.47200840529E+01 -0.34745497611E+00  0.96721951124E+02  0.92495879806E+02 0.  0.
         11    1    3    3    0    0  0.11064043733E+02  0.23051307312E+02 -0.30791727809E+02  0.40023822084E+02  0.51100000000E-03 0. -1.
         22    1    1    0    0    0  0.27879170178E+02  0.47200840529E+01  0.34745497611E+00  0.28278048876E+02  0.00000000000E+00 0.  1.
</event>
<event>
 5    1  0.1096978E-009  0.9118800E+02  0.7818608E-02  0.1130116E+00
         25   -1    0    0    0    0  0.00000000000E+00  0.00000000000E+00  0.99999998245E-14  0.12500000000E+03  0.12500000000E+03 0.  0.
        -11    1    3    3    0    0  0.59438019165E+01 -0.24692361359E+02  0.41901988507E+02  0.48998144167E+02  0.51100000000E-03 0.  1.
         23    2    1    0    0    0 -0.13747957929E+02 -0.27737535657E+02  0.15478303124E+01  0.94003661342E+02  0.88746353928E+02 0.  0.
         11    1    3    3    0    0 -0.19691759845E+02 -0.30451742984E+01 -0.40354158195E+02  0.45005517175E+02  0.51100000000E-03 0. -1.
         22    1    1    0    0    0  0.13747957929E+02  0.27737535657E+02 -0.15478303124E+01  0.30996338658E+02  0.00000000000E+00 0.  1.
</event>
<event>
 5    1  0.1096978E-009  0.9118800E+02  0.7818608E-02  0.1130116E+00
         25   -1    0    0    0    0  0.00000000000E+00  0.00000000000E+00  0.99999998245E-14  0.12500000000E+03  0.12500000000E+03 0.  0.
        -11    1    3    3    0    0 -0.12756557717E+02 -0.47603737810E+02 -0.39908100866E+01  0.49444637563E+02  0.51100000000E-03 0. -1.
         23    2    1    0    0    0 -0.15151629216E+02 -0.59043411761E+01 -0.24199252350E+02  0.95844607241E+02  0.91302529046E+02 0.  0.
         11    1    3    3    0    0 -0.23950714982E+01  0.41699396634E+02 -0.20208442264E+02  0.46399969678E+02  0.51100000000E-03 0.  1.
         22    1    1    0    0    0  0.15151629216E+02  0.59043411761E+01  0.24199252350E+02  0.29155392759E+02  0.00000000000E+00 0.  1.
</event>
<event>
 5    1  0.1096978E-009  0.9118800E+02  0.7818608E-02  0.1130116E+00
         25   -1    0    0    0    0  0.00000000000E+00  0.00000000000E+00  0.99999998245E-14  0.12500000000E+03  0.12500000000E+03 0.  0.
        -11    1    3    3    0    0  0.70251248551E+01 -0.48400573175E+02 -0.13835390673E+02  0.50827019372E+02  0.51100000000E-03 0.  1.
         23    2    1    0    0    0  0.27372708836E+02 -0.96784524353E+01 -0.36681862144E+01  0.95735803092E+02  0.91153446304E+02 0.  0.
         11    1    3    3    0    0  0.20347583981E+02  0.38722120740E+02  0.10167204458E+02  0.44908783720E+02  0.51100000000E-03 0. -1.
         22    1    1    0    0    0 -0.27372708836E+02  0.96784524353E+01  0.36681862144E+01  0.29264196908E+02  0.00000000000E+00 0.  1.
</event>
<event>
 5    1  0.1096978E-009  0.9118800E+02  0.7818608E-02  0.1130116E+00
         25   -1    0    0    0    0  0.00000000000E+00  0.00000000000E+00  0.99999998245E-14  0.12500000000E+03  0.12500000000E+03 0.  0.
        -11    1    3    3    0    0  0.40173998622E+02 -0.31121288916E+01  0.44596034610E+02  0.60103592361E+02  0.51100000000E-03 0.  1.
         23    2    1    0    0    0  0.23596467944E+02 -0.12116400282E+02  0.17130966215E+02  0.93423577487E+02  0.87925504672E+02 0.  0.
         11    1    3    3    0    0 -0.16577530678E+02 -0.90042713907E+01 -0.27465068395E+02  0.33319985127E+02  0.51100000000E-03 0. -1.
         22    1    1    0    0    0 -0.23596467944E+02  0.12116400282E+02 -0.17130966215E+02  0.31576422513E+02  0.00000000000E+00 0.  1.
</event>
<event>
 5    1  0.1096978E-009  0.9118800E+02  0.7818608E-02  0.1130116E+00
         25   -1    0    0    0    0  0.00000000000E+00  0.00000000000E+00  0.99999998245E-14  0.12500000000E+03  0.12500000000E+03 0.  0.
        -11    1    3    3    0    0 -0.44459430749E+02  0.21491208268E+02  0.65969467872E+01  0.49820003237E+02  0.51100000000E-03 0. -1.
         23    2    1    0    0    0 -0.24866464163E+02 -0.15020576371E+02 -0.97383007655E+01  0.94360266707E+02  0.89247222235E+02 0.  0.
         11    1    3    3    0    0  0.19592966586E+02 -0.36511784639E+02 -0.16335247553E+02  0.44540263470E+02  0.51100000000E-03 0.  1.
         22    1    1    0    0    0  0.24866464163E+02  0.15020576371E+02  0.97383007655E+01  0.30639733293E+02  0.00000000000E+00 0. -1.
</event>
<event>
 5    1  0.1096978E-009  0.9118800E+02  0.7818608E-02  0.1130116E+00
         25   -1    0    0    0    0  0.00000000000E+00  0.00000000000E+00  0.99999998245E-14  0.12500000000E+03  0.12500000000E+03 0.  0.
        -11    1    3    3    0    0 -0.34896516132E+02  0.95808115763E+01  0.37225622933E+02  0.51916334536E+02  0.51100000000E-03 0.  1.
         23    2    1    0    0    0 -0.10718083505E+02  0.27113500807E+02  0.57936810622E+01  0.95274825816E+02  0.90519094416E+02 0.  0.
         11    1    3    3    0    0  0.24178432628E+02  0.17532689231E+02 -0.31431941871E+02  0.43358491280E+02  0.51100000000E-03 0. -1.
         22    1    1    0    0    0  0.10718083505E+02 -0.27113500807E+02 -0.57936810622E+01  0.29725174184E+02  0.00000000000E+00 0. -1.
</event>
<event>
 5    1  0.1096978E-009  0.9118800E+02  0.7818608E-02  0.1130116E+00
         25   -1    0    0    0    0  0.00000000000E+00  0.00000000000E+00  0.99999998245E-14  0.12500000000E+03  0.12500000000E+03 0.  0.
        -11    1    3    3    0    0  0.22099487346E+02  0.33938122357E+02  0.11333387461E+02  0.42055072961E+02  0.51100000000E-03 0. -1.
         23    2    1    0    0    0  0.46191495016E+01  0.21424763093E+01 -0.28565006028E+02  0.95984722710E+02  0.91494156521E+02 0.  0.
         11    1    3    3    0    0 -0.17480337845E+02 -0.31795646048E+02 -0.39898393489E+02  0.53929649749E+02  0.51100000000E-03 0.  1.
         22    1    1    0    0    0 -0.46191495016E+01 -0.21424763093E+01  0.28565006028E+02  0.29015277290E+02  0.00000000000E+00 0.  1.
</event>
<event>
 5    1  0.1096978E-009  0.9118800E+02  0.7818608E-02  0.1130116E+00
         25   -1    0    0    0    0  0.00000000000E+00  0.00000000000E+00  0.99999998245E-14  0.12500000000E+03  0.12500000000E+03 0.  0.
        -11    1    3    3    0    0 -0.38585020260E+02  0.24406420839E+02 -0.24321811416E+02  0.51730336143E+02  0.51100000000E-03 0.  1.
         23    2    1    0    0    0 -0.20075942146E+02 -0.14386775569E+02 -0.16169753484E+02  0.95479097371E+02  0.90800739769E+02 0.  0.
         11    1    3    3    0    0  0.18509078114E+02 -0.38793196408E+02  0.81520579317E+01  0.43748761228E+02  0.51100000000E-03 0. -1.
         22    1    1    0    0    0  0.20075942146E+02  0.14386775569E+02  0.16169753484E+02  0.29520902629E+02  0.00000000000E+00 0.  1.
</event>
<event>
 5    1  0.1096978E-009  0.9118800E+02  0.7818608E-02  0.1130116E+00
         25   -1    0    0    0    0  0.00000000000E+00  0.00000000000E+00  0.99999998245E-14  0.12500000000E+03  0.12500000000E+03 0.  0.
        -11    1    3    3    0    0  0.31355066066E+02 -0.18294104832E+02  0.37572576196E+02  0.52244740614E+02  0.51100000000E-03 0. -1.
         23    2    1    0    0    0  0.27118835003E+02 -0.42392498441E+01 -0.48422753995E+01  0.97127969536E+02  0.93042959884E+02 0.  0.
         11    1    3    3    0    0 -0.42362310630E+01  0.14054854988E+02 -0.42414851595E+02  0.44883228922E+02  0.51100000000E-03 0.  1.
         22    1    1    0    0    0 -0.27118835003E+02  0.42392498441E+01  0.48422753995E+01  0.27872030464E+02  0.00000000000E+00 0. -1.
</event>
<event>
 5    1  0.1096978E-009  0.9118800E+02  0.7818608E-02  0.1130116E+00
         25   -1    0    0    0    0  0.00000000000E+00  0.00000000000E+00  0.99999998245E-14  0.12500000000E+03  0.12500000000E+03 0.  0.
        -11    1    3    3    0    0  0.19138943615E+02 -0.32703966786E+02  0.19425292839E+02  0.42581575926E+02  0.51100000000E-03 0. -1.
         23    2    1    0    0    0  0.54278523722E+01  0.18283709416E+02  0.22541489987E+02  0.95472480933E+02  0.90791630855E+02 0.  0.
         11    1    3    3    0    0 -0.13711091243E+02  0.50987676202E+02  0.31161971482E+01  0.52890905007E+02  0.51100000000E-03 0.  1.
         22    1    1    0    0    0 -0.54278523722E+01 -0.18283709416E+02 -0.22541489987E+02  0.29527519067E+02  0.00000000000E+00 0.  1.
</event>
<event>
 5    1  0.1096978E-009  0.9118800E+02  0.7818608E-02  0.1130116E+00
         25   -1    0    0    0    0  0.00000000000E+00  0.00000000000E+00  0.99999998245E-14  0.12500000000E+03  0.12500000000E+03 0.  0.
        -11    1    3    3    0    0 -0.45435898262E+02  0.35624591256E+01 -0.20137385683E+02  0.49825959783E+02  0.51100000000E-03 0.  1.
         23    2    1    0    0    0 -0.65420055061E+01  0.26289912626E+02 -0.10824122835E+02  0.95826056538E+02  0.91277128212E+02 0.  0.
         11    1    3    3    0    0  0.38893892756E+02  0.22727453501E+02  0.93132628481E+01  0.46000096755E+02  0.51100000000E-03 0. -1.
         22    1    1    0    0    0  0.65420055061E+01 -0.26289912626E+02  0.10824122835E+02  0.29173943462E+02  0.00000000000E+00 0.  1.
</event>
<event>
 5    1  0.1096978E-009  0.9118800E+02  0.7818608E-02  0.1130116E+00
         25   -1    0    0    0    0  0.00000000000E+00  0.00000000000E+00  0.99999998245E-14  0.12500000000E+03  0.12500000000E+03 0.  0.
        -11    1    3    3    0    0 -0.37799362957E+02  0.33024108706E+02 -0.25887772187E+02  0.56476192726E+02  0.51100000000E-03 0.  1.
         23    2    1    0    0    0 -0.25940744496E+02 -0.10584556351E+01 -0.17981255012E+02  0.93418865043E+02  0.87918804933E+02 0.  0.
         11    1    3    3    0    0  0.11858618461E+02 -0.34082564341E+02  0.79065171742E+01  0.36942672317E+02  0.51100000000E-03 0. -1.
         22    1    1    0    0    0  0.25940744496E+02  0.10584556351E+01  0.17981255012E+02  0.31581134957E+02  0.00000000000E+00 0.  1.
</event>
<event>
 5    1  0.1096978E-009  0.9118800E+02  0.7818608E-02  0.1130116E+00
         25   -1    0    0    0    0  0.00000000000E+00  0.00000000000E+00  0.99999998245E-14  0.12500000000E+03  0.12500000000E+03 0.  0.
        -11    1    3    3    0    0  0.53726785052E+01  0.20706481637E+02 -0.29176677230E+02  0.36178758278E+02  0.51100000000E-03 0.  1.
         23    2    1    0    0    0 -0.18449700506E+01 -0.20493197654E+02  0.16874181306E+02  0.98389606179E+02  0.94722761492E+02 0.  0.
         11    1    3    3    0    0 -0.72176485558E+01 -0.41199679291E+02  0.46050858536E+02  0.62210847901E+02  0.51100000000E-03 0. -1.
         22    1    1    0    0    0  0.18449700506E+01  0.20493197654E+02 -0.16874181306E+02  0.26610393821E+02  0.00000000000E+00 0. -1.
</event>
<event>
 5    1  0.1096978E-009  0.9118800E+02  0.7818608E-02  0.1130116E+00
         25   -1    0    0    0    0  0.00000000000E+00  0.00000000000E+00  0.99999998245E-14  0.12500000000E+03  0.12500000000E+03 0.  0.
        -11    1    3    3    0    0  0.11812654359E+02  0.42252449926E+01 -0.50625442235E+02  0.52156753158E+02  0.51100000000E-03 0.  1.
         23    2    1    0    0    0 -0.62560924222E+01 -0.20679138472E+02 -0.21214455392E+02  0.94720987831E+02  0.89751027613E+02 0.  0.
         11    1    3    3    0    0 -0.18068746781E+02 -0.24904383465E+02  0.29410986842E+02  0.42564234673E+02  0.51100000000E-03 0. -1.
         22    1    1    0    0    0  0.62560924222E+01  0.20679138472E+02  0.21214455392E+02  0.30279012169E+02  0.00000000000E+00 0.  1.
</event>
<event>
 5    1  0.1096978E-009  0.9118800E+02  0.7818608E-02  0.1130116E+00
         25   -1    0    0    0    0  0.00000000000E+00  0.00000000000E+00  0.99999998245E-14  0.12500000000E+03  0.12500000000E+03 0.  0.
        -11    1    3    3    0    0 -0.31198858395E+02  0.37629101242E+02  0.37485828796E+02  0.61599556705E+02  0.51100000000E-03 0. -1.
         23    2    1    0    0    0 -0.20864473008E+02  0.14107891516E+02  0.15405412195E+02  0.95475678469E+02  0.90796033049E+02 0.  0.
         11    1    3    3    0    0  0.10334385387E+02 -0.23521209726E+02 -0.22080416601E+02  0.33876121765E+02  0.51100000000E-03 0.  1.
         22    1    1    0    0    0  0.20864473008E+02 -0.14107891516E+02 -0.15405412195E+02  0.29524321531E+02  0.00000000000E+00 0. -1.
</event>
<event>
 5    1  0.1096978E-009  0.9118800E+02  0.7818608E-02  0.1130116E+00
         25   -1    0    0    0    0  0.00000000000E+00  0.00000000000E+00  0.99999998245E-14  0.12500000000E+03  0.12500000000E+03 0.  0.
        -11    1    3    3    0    0 -0.43090398177E+00 -0.29191715698E+02 -0.98206081074E+01  0.30802374705E+02  0.51100000000E-03 0. -1.
         23    2    1    0    0    0 -0.32246271480E+01  0.29558495331E+02  0.11148061512E+02  0.93244966667E+02  0.87671213445E+02 0.  0.
         11    1    3    3    0    0 -0.27937231662E+01  0.58750211029E+02  0.20968669619E+02  0.62442591962E+02  0.51100000000E-03 0.  1.
         22    1    1    0    0    0  0.32246271480E+01 -0.29558495331E+02 -0.11148061512E+02  0.31755033333E+02  0.00000000000E+00 0.  1.
</event>
<event>
 5    1  0.1096978E-009  0.9118800E+02  0.7818608E-02  0.1130116E+00
         25   -1    0    0    0    0  0.00000000000E+00  0.00000000000E+00  0.99999998245E-14  0.12500000000E+03  0.12500000000E+03 0.  0.
        -11    1    3    3    0    0  0.95425592535E+01  0.37275953935E+02 -0.46133335778E+02  0.60073636890E+02  0.51100000000E-03 0.  1.
         23    2    1    0    0    0  0.15381927689E+02  0.20956623228E+02 -0.17109573497E+02  0.93878925761E+02  0.88570488540E+02 0.  0.
         11    1    3    3    0    0  0.58393684355E+01 -0.16319330707E+02  0.29023762281E+02  0.33805288871E+02  0.51100000000E-03 0. -1.
         22    1    1    0    0    0 -0.15381927689E+02 -0.20956623228E+02  0.17109573497E+02  0.31121074239E+02  0.00000000000E+00 0.  1.
</event>
<event>
 5    1  0.1096978E-009  0.9118800E+02  0.7818608E-02  0.1130116E+00
         25   -1    0    0    0    0  0.00000000000E+00  0.00000000000E+00  0.99999998245E-14  0.12500000000E+03  0.12500000000E+03 0.  0.
        -11    1    3    3    0    0 -0.14067790319E+02 -0.26652722856E+02 -0.20711323897E+02  0.36568145946E+02  0.51100000000E-03 0.  1.
         23    2    1    0    0    0  0.20452290459E+02 -0.30943862241E+01  0.20935775641E+02  0.95569095956E+02  0.90924551079E+02 0.  0.
         11    1    3    3    0    0  0.34520080778E+02  0.23558336632E+02  0.41647099539E+02  0.59000950010E+02  0.51100000000E-03 0. -1.
         22    1    1    0    0    0 -0.20452290459E+02  0.30943862241E+01 -0.20935775641E+02  0.29430904044E+02  0.00000000000E+00 0. -1.
</event>
<event>
 5    1  0.1096978E-009  0.9118800E+02  0.7818608E-02  0.1130116E+00
         25   -1    0    0    0    0  0.00000000000E+00  0.00000000000E+00  0.99999998245E-14  0.12500000000E+03  0.12500000000E+03 0.  0.
        -11    1    3    3    0    0  0.47144045638E+01  0.11375876758E+02 -0.42721679610E+02  0.44460972677E+02  0.51100000000E-03 0.  1.
         23    2    1    0    0    0  0.29563188526E+02  0.42020571709E+01  0.84652692524E+00  0.95127671532E+02  0.90315656909E+02 0.  0.
         11    1    3    3    0    0  0.24848783962E+02 -0.71738195866E+01  0.43568206535E+02  0.50666698855E+02  0.51100000000E-03 0. -1.
         22    1    1    0    0    0 -0.29563188526E+02 -0.42020571709E+01 -0.84652692524E+00  0.29872328468E+02  0.00000000000E+00 0.  1.
</event>
<event>
 5    1  0.1096978E-009  0.9118800E+02  0.7818608E-02  0.1130116E+00
         25   -1    0    0    0    0  0.00000000000E+00  0.00000000000E+00  0.99999998245E-14  0.12500000000E+03  0.12500000000E+03 0.  0.
        -11    1    3    3    0    0 -0.34934078148E+02  0.25471329946E+02 -0.36032769635E+02  0.56280893322E+02  0.51100000000E-03 0.  1.
         23    2    1    0    0    0 -0.30858771273E+00  0.23801747493E+02 -0.15999999959E+02  0.96318674912E+02  0.91949272580E+02 0.  0.
         11    1    3    3    0    0  0.34625490435E+02 -0.16695824529E+01  0.20032769676E+02  0.40037781590E+02  0.51100000000E-03 0. -1.
         22    1    1    0    0    0  0.30858771273E+00 -0.23801747493E+02  0.15999999959E+02  0.28681325088E+02  0.00000000000E+00 0.  1.
</event>
<event>
 5    1  0.1096978E-009  0.9118800E+02  0.7818608E-02  0.1130116E+00
         25   -1    0    0    0    0  0.00000000000E+00  0.00000000000E+00  0.99999998245E-14  0.12500000000E+03  0.12500000000E+03 0.  0.
        -11    1    3    3    0    0  0.20802323071E+01  0.15567361897E+02 -0.58749410007E+02  0.60812525842E+02  0.51100000000E-03 0. -1.
         23    2    1    0    0    0 -0.91418612091E+01  0.88454997247E+01 -0.26889907676E+02  0.95253006428E+02  0.90488958481E+02 0.  0.
         11    1    3    3    0    0 -0.11222093516E+02 -0.67218621725E+01  0.31859502331E+02  0.34440480586E+02  0.51100000000E-03 0.  1.
         22    1    1    0    0    0  0.91418612091E+01 -0.88454997247E+01  0.26889907676E+02  0.29746993572E+02  0.00000000000E+00 0. -1.
</event>
<event>
 5    1  0.1096978E-009  0.9118800E+02  0.7818608E-02  0.1130116E+00
         25   -1    0    0    0    0  0.00000000000E+00  0.00000000000E+00  0.99999998245E-14  0.12500000000E+03  0.12500000000E+03 0.  0.
        -11    1    3    3    0    0 -0.13238167772E+01  0.30429144657E+02  0.89821489422E+01  0.31754752956E+02  0.51100000000E-03 0. -1.
         23    2    1    0    0    0 -0.45872831526E+01 -0.29408662916E+02 -0.82567036976E+01  0.94111721039E+02  0.88898426644E+02 0.  0.
         11    1    3    3    0    0 -0.32634663754E+01 -0.59837807573E+02 -0.17238852640E+02  0.62356968083E+02  0.51100000000E-03 0.  1.
         22    1    1    0    0    0  0.45872831526E+01  0.29408662916E+02  0.82567036976E+01  0.30888278961E+02  0.00000000000E+00 0.  1.
</event>
<event>
 5    1  0.1096978E-009  0.9118800E+02  0.7818608E-02  0.1130116E+00
         25   -1    0    0    0    0  0.00000000000E+00  0.00000000000E+00  0.99999998245E-14  0.12500000000E+03  0.12500000000E+03 0.  0.
        -11    1    3    3    0    0 -0.31605488810E+02  0.30608384871E+02 -0.19036386362E+02  0.47939171387E+02  0.51100000000E-03 0. -1.
         23    2    1    0    0    0  0.90873701661E+01  0.65296263769E+01 -0.26894140436E+02  0.95870786023E+02  0.91338362727E+02 0.  0.
         11    1    3    3    0    0  0.40692858976E+02 -0.24078758494E+02 -0.78577540734E+01  0.47931614636E+02  0.51100000000E-03 0.  1.
         22    1    1    0    0    0 -0.90873701661E+01 -0.65296263769E+01  0.26894140436E+02  0.29129213977E+02  0.00000000000E+00 0.  1.
</event>
<event>
 5    1  0.1096978E-009  0.9118800E+02  0.7818608E-02  0.1130116E+00
         25   -1    0    0    0    0  0.00000000000E+00  0.00000000000E+00  0.99999998245E-14  0.12500000000E+03  0.12500000000E+03 0.  0.
        -11    1    3    3    0    0 -0.39557936663E+02 -0.24055213728E+02 -0.28857722369E+02  0.54555034609E+02  0.51100000000E-03 0.  1.
         23    2    1    0    0    0 -0.34650122919E+02  0.46016222883E+01 -0.12750429210E+02  0.87792750827E+02  0.79518473997E+02 0.  0.
         11    1    3    3    0    0  0.49078137446E+01  0.28656836016E+02  0.16107293159E+02  0.33237716218E+02  0.51100000000E-03 0. -1.
         22    1    1    0    0    0  0.34650122919E+02 -0.46016222883E+01  0.12750429210E+02  0.37207249173E+02  0.00000000000E+00 0.  1.
</event>
<event>
 5    1  0.1096978E-009  0.9118800E+02  0.7818608E-02  0.1130116E+00
         25   -1    0    0    0    0  0.00000000000E+00  0.00000000000E+00  0.99999998245E-14  0.12500000000E+03  0.12500000000E+03 0.  0.
        -11    1    3    3    0    0 -0.37250989433E+02  0.34825947258E+02 -0.29603825961E+02  0.58964983914E+02  0.51100000000E-03 0. -1.
         23    2    1    0    0    0 -0.17274695818E+02  0.50021881387E+01 -0.23550905163E+02  0.95367549278E+02  0.90647048046E+02 0.  0.
         11    1    3    3    0    0  0.19976293615E+02 -0.29823759120E+02  0.60529207975E+01  0.36402565364E+02  0.51100000000E-03 0.  1.
         22    1    1    0    0    0  0.17274695818E+02 -0.50021881387E+01  0.23550905163E+02  0.29632450722E+02  0.00000000000E+00 0. -1.
</event>
<event>
 5    1  0.1096978E-009  0.9118800E+02  0.7818608E-02  0.1130116E+00
         25   -1    0    0    0    0  0.00000000000E+00  0.00000000000E+00  0.99999998245E-14  0.12500000000E+03  0.12500000000E+03 0.  0.
        -11    1    3    3    0    0  0.28411356172E+02  0.28022912295E+02 -0.17480820944E+02  0.43566820794E+02  0.51100000000E-03 0. -1.
         23    2    1    0    0    0  0.34099283392E+02 -0.91135283202E+01  0.78026435151E+01  0.88851711353E+02  0.81166051021E+02 0.  0.
         11    1    3    3    0    0  0.56879272198E+01 -0.37136440615E+02  0.25283464459E+02  0.45284890559E+02  0.51100000000E-03 0.  1.
         22    1    1    0    0    0 -0.34099283392E+02  0.91135283202E+01 -0.78026435151E+01  0.36148288647E+02  0.00000000000E+00 0.  1.
</event>
<event>
 5    1  0.1096978E-009  0.9118800E+02  0.7818608E-02  0.1130116E+00
         25   -1    0    0    0    0  0.00000000000E+00  0.00000000000E+00  0.99999998245E-14  0.12500000000E+03  0.12500000000E+03 0.  0.
        -11    1    3    3    0    0  0.43079329485E+02 -0.32006092155E+01 -0.18742939891E+01  0.43238703801E+02  0.51100000000E-03 0. -1.
         23    2    1    0    0    0 -0.31684514864E+01  0.26489496109E+02  0.13180905212E+01  0.98289143564E+02  0.94590094042E+02 0.  0.
         11    1    3    3    0    0 -0.46247780971E+02  0.29690105325E+02  0.31923845104E+01  0.55050439763E+02  0.51100000000E-03 0.  1.
         22    1    1    0    0    0  0.31684514864E+01 -0.26489496109E+02 -0.13180905212E+01  0.26710856436E+02  0.00000000000E+00 0.  1.
</event>
<event>
 5    1  0.1096978E-009  0.9118800E+02  0.7818608E-02  0.1130116E+00
         25   -1    0    0    0    0  0.00000000000E+00  0.00000000000E+00  0.99999998245E-14  0.12500000000E+03  0.12500000000E+03 0.  0.
        -11    1    3    3    0    0  0.40807756906E+02 -0.31707505708E+02  0.29874362631E+02  0.59691846050E+02  0.51100000000E-03 0.  1.
         23    2    1    0    0    0  0.14430958399E+02 -0.14673817977E+02  0.26754676045E+02  0.91245205013E+02  0.84772054671E+02 0.  0.
         11    1    3    3    0    0 -0.26376798507E+02  0.17033687731E+02 -0.31196865859E+01  0.31553358963E+02  0.51100000000E-03 0. -1.
         22    1    1    0    0    0 -0.14430958399E+02  0.14673817977E+02 -0.26754676045E+02  0.33754794987E+02  0.00000000000E+00 0.  1.
</event>
<event>
 5    1  0.1096978E-009  0.9118800E+02  0.7818608E-02  0.1130116E+00
         25   -1    0    0    0    0  0.00000000000E+00  0.00000000000E+00  0.99999998245E-14  0.12500000000E+03  0.12500000000E+03 0.  0.
        -11    1    3    3    0    0 -0.76404145828E+01 -0.21784916536E+02  0.28319169393E+02  0.36536746966E+02  0.51100000000E-03 0.  1.
         23    2    1    0    0    0  0.18908282334E+02  0.19235737313E+02 -0.73622549015E+01  0.97040394709E+02  0.92925231650E+02 0.  0.
         11    1    3    3    0    0  0.26548696917E+02  0.41020653849E+02 -0.35681424295E+02  0.60503647743E+02  0.51100000000E-03 0. -1.
         22    1    1    0    0    0 -0.18908282334E+02 -0.19235737313E+02  0.73622549015E+01  0.27959605291E+02  0.00000000000E+00 0. -1.
</event>
<event>
 5    1  0.1096978E-009  0.9118800E+02  0.7818608E-02  0.1130116E+00
         25   -1    0    0    0    0  0.00000000000E+00  0.00000000000E+00  0.99999998245E-14  0.12500000000E+03  0.12500000000E+03 0.  0.
        -11    1    3    3    0    0  0.50202030744E+02  0.26475123174E+02 -0.15829076845E+02  0.58921436778E+02  0.51100000000E-03 0.  1.
         23    2    1    0    0    0  0.24237505430E+02  0.17049582835E+02  0.67611257764E+01  0.94604971359E+02  0.89589300923E+02 0.  0.
         11    1    3    3    0    0 -0.25964525315E+02 -0.94255403384E+01  0.22590202621E+02  0.35683534581E+02  0.51100000000E-03 0. -1.
         22    1    1    0    0    0 -0.24237505430E+02 -0.17049582835E+02 -0.67611257764E+01  0.30395028641E+02  0.00000000000E+00 0.  1.
</event>
<event>
 5    1  0.1096978E-009  0.9118800E+02  0.7818608E-02  0.1130116E+00
         25   -1    0    0    0    0  0.00000000000E+00  0.00000000000E+00  0.99999998245E-14  0.12500000000E+03  0.12500000000E+03 0.  0.
        -11    1    3    3    0    0 -0.18500397102E+02 -0.30246632194E+01 -0.51456621906E+02  0.54764926904E+02  0.51100000000E-03 0. -1.
         23    2    1    0    0    0 -0.16098890390E+02  0.17929591916E+02 -0.15822900408E+02  0.96172778222E+02  0.91750719646E+02 0.  0.
         11    1    3    3    0    0  0.24015067118E+01  0.20954255136E+02  0.35633721498E+02  0.41407851319E+02  0.51100000000E-03 0.  1.
         22    1    1    0    0    0  0.16098890390E+02 -0.17929591916E+02  0.15822900408E+02  0.28827221778E+02  0.00000000000E+00 0. -1.
</event>
<event>
 5    1  0.1096978E-009  0.9118800E+02  0.7818608E-02  0.1130116E+00
         25   -1    0    0    0    0  0.00000000000E+00  0.00000000000E+00  0.99999998245E-14  0.12500000000E+03  0.12500000000E+03 0.  0.
        -11    1    3    3    0    0  0.27577028820E+02  0.24933763977E+02 -0.28929552979E+02  0.47107368218E+02  0.51100000000E-03 0.  1.
         23    2    1    0    0    0 -0.14890027693E+02  0.25832601285E+02 -0.10869963346E+02  0.93263706628E+02  0.87697928465E+02 0.  0.
         11    1    3    3    0    0 -0.42467056513E+02  0.89883730780E+00  0.18059589634E+02  0.46156338410E+02  0.51100000000E-03 0. -1.
         22    1    1    0    0    0  0.14890027693E+02 -0.25832601285E+02  0.10869963346E+02  0.31736293372E+02  0.00000000000E+00 0.  1.
</event>
<event>
 5    1  0.1096978E-009  0.9118800E+02  0.7818608E-02  0.1130116E+00
         25   -1    0    0    0    0  0.00000000000E+00  0.00000000000E+00  0.99999998245E-14  0.12500000000E+03  0.12500000000E+03 0.  0.
        -11    1    3    3    0    0 -0.53273147401E+02 -0.90835955643E+01 -0.31349928853E+02  0.62476859570E+02  0.51100000000E-03 0.  1.
         23    2    1    0    0    0 -0.28437298581E+02 -0.42170302275E+01 -0.15485313907E+02  0.92346390072E+02  0.86380539000E+02 0.  0.
         11    1    3    3    0    0  0.24835848820E+02  0.48665653368E+01  0.15864614945E+02  0.29869530502E+02  0.51100000000E-03 0. -1.
         22    1    1    0    0    0  0.28437298581E+02  0.42170302275E+01  0.15485313907E+02  0.32653609928E+02  0.00000000000E+00 0.  1.
</event>
<event>
 5    1  0.1096978E-009  0.9118800E+02  0.7818608E-02  0.1130116E+00
         25   -1    0    0    0    0  0.00000000000E+00  0.00000000000E+00  0.99999998245E-14  0.12500000000E+03  0.12500000000E+03 0.  0.
        -11    1    3    3    0    0  0.10495217260E+02  0.36310529107E+02 -0.24994928208E+01  0.37879434711E+02  0.51100000000E-03 0. -1.
         23    2    1    0    0    0  0.34361637480E+01 -0.20047193062E+02  0.17573487243E+02  0.98120181830E+02  0.94366548403E+02 0.  0.
         11    1    3    3    0    0 -0.70590535119E+01 -0.56357722169E+02  0.20072980064E+02  0.60240747119E+02  0.51100000000E-03 0.  1.
         22    1    1    0    0    0 -0.34361637480E+01  0.20047193062E+02 -0.17573487243E+02  0.26879818170E+02  0.00000000000E+00 0.  1.
</event>
<event>
 5    1  0.1096978E-009  0.9118800E+02  0.7818608E-02  0.1130116E+00
         25   -1    0    0    0    0  0.00000000000E+00  0.00000000000E+00  0.99999998245E-14  0.12500000000E+03  0.12500000000E+03 0.  0.
        -11    1    3    3    0    0 -0.28174364584E+02  0.24382968441E+01  0.52453852829E+02  0.59591499293E+02  0.51100000000E-03 0.  1.
         23    2    1    0    0    0 -0.20457949877E+02  0.11011325404E+02  0.18970852198E+02  0.95005496613E+02  0.90146403995E+02 0.  0.
         11    1    3    3    0    0  0.77164147069E+01  0.85730285602E+01 -0.33483000631E+02  0.35413997319E+02  0.51100000000E-03 0. -1.
         22    1    1    0    0    0  0.20457949877E+02 -0.11011325404E+02 -0.18970852198E+02  0.29994503387E+02  0.00000000000E+00 0.  1.
</event>
<event>
 5    1  0.1096978E-009  0.9118800E+02  0.7818608E-02  0.1130116E+00
         25   -1    0    0    0    0  0.00000000000E+00  0.00000000000E+00  0.99999998245E-14  0.12500000000E+03  0.12500000000E+03 0.  0.
        -11    1    3    3    0    0 -0.41261114711E+02  0.21196226938E+02 -0.22984244073E+02  0.51769055424E+02  0.51100000000E-03 0.  1.
         23    2    1    0    0    0  0.23603593555E+01  0.22179710267E+02 -0.19207327670E+02  0.95564778240E+02  0.90918615036E+02 0.  0.
         11    1    3    3    0    0  0.43621474067E+02  0.98348332928E+00  0.37769164027E+01  0.43795722816E+02  0.51100000000E-03 0. -1.
         22    1    1    0    0    0 -0.23603593555E+01 -0.22179710267E+02  0.19207327670E+02  0.29435221760E+02  0.00000000000E+00 0.  1.
</event>
<event>
 5    1  0.1096978E-009  0.9118800E+02  0.7818608E-02  0.1130116E+00
         25   -1    0    0    0    0  0.00000000000E+00  0.00000000000E+00  0.99999998245E-14  0.12500000000E+03  0.12500000000E+03 0.  0.
        -11    1    3    3    0    0 -0.17159311953E+02  0.37712165282E+02 -0.45817966950E+02  0.61773258718E+02  0.51100000000E-03 0. -1.
         23    2    1    0    0    0 -0.39135050147E+01  0.13476939392E+02 -0.24893071887E+02  0.96423638355E+02  0.92091854085E+02 0.  0.
         11    1    3    3    0    0  0.13245806938E+02 -0.24235225890E+02  0.20924895063E+02  0.34650379637E+02  0.51100000000E-03 0.  1.
         22    1    1    0    0    0  0.39135050147E+01 -0.13476939392E+02  0.24893071887E+02  0.28576361645E+02  0.00000000000E+00 0. -1.
</event>
<event>
 5    1  0.1096978E-009  0.9118800E+02  0.7818608E-02  0.1130116E+00
         25   -1    0    0    0    0  0.00000000000E+00  0.00000000000E+00  0.99999998245E-14  0.12500000000E+03  0.12500000000E+03 0.  0.
        -11    1    3    3    0    0 -0.25452673510E+01 -0.26239902858E+02  0.24114568035E+02  0.35728465957E+02  0.51100000000E-03 0.  1.
         23    2    1    0    0    0  0.79823007034E+01  0.71701850552E+01 -0.26000559177E+02  0.96872473344E+02  0.92699074084E+02 0.  0.
         11    1    3    3    0    0  0.10527568054E+02  0.33410087913E+02 -0.50115127213E+02  0.61144007387E+02  0.51100000000E-03 0. -1.
         22    1    1    0    0    0 -0.79823007034E+01 -0.71701850552E+01  0.26000559177E+02  0.28127526656E+02  0.00000000000E+00 0. -1.
</event>
<event>
 5    1  0.1096978E-009  0.9118800E+02  0.7818608E-02  0.1130116E+00
         25   -1    0    0    0    0  0.00000000000E+00  0.00000000000E+00  0.99999998245E-14  0.12500000000E+03  0.12500000000E+03 0.  0.
        -11    1    3    3    0    0  0.53131415607E+00  0.24504391522E+02  0.51869540066E+02  0.57368952278E+02  0.51100000000E-03 0.  1.
         23    2    1    0    0    0  0.15783888731E+02  0.16409514324E+02  0.16019954306E+02  0.97160419547E+02  0.93086545144E+02 0.  0.
         11    1    3    3    0    0  0.15252574574E+02 -0.80948771981E+01 -0.35849585760E+02  0.39791467269E+02  0.51100000000E-03 0. -1.
         22    1    1    0    0    0 -0.15783888731E+02 -0.16409514324E+02 -0.16019954306E+02  0.27839580453E+02  0.00000000000E+00 0.  1.
</event>
<event>
 5    1  0.1096978E-009  0.9118800E+02  0.7818608E-02  0.1130116E+00
         25   -1    0    0    0    0  0.00000000000E+00  0.00000000000E+00  0.99999998245E-14  0.12500000000E+03  0.12500000000E+03 0.  0.
        -11    1    3    3    0    0  0.12603658457E+02 -0.33580577567E+02  0.10059817357E+02  0.37251943865E+02  0.51100000000E-03 0.  1.
         23    2    1    0    0    0  0.13008377192E+01  0.19489326498E+02  0.24755042840E+02  0.93466871831E+02  0.87987032896E+02 0.  0.
         11    1    3    3    0    0 -0.11302820738E+02  0.53069904064E+02  0.14695225482E+02  0.56214927966E+02  0.51100000000E-03 0. -1.
         22    1    1    0    0    0 -0.13008377192E+01 -0.19489326498E+02 -0.24755042840E+02  0.31533128169E+02  0.00000000000E+00 0. -1.
</event>
<event>
 5    1  0.1096978E-009  0.9118800E+02  0.7818608E-02  0.1130116E+00
         25   -1    0    0    0    0  0.00000000000E+00  0.00000000000E+00  0.99999998245E-14  0.12500000000E+03  0.12500000000E+03 0.  0.
        -11    1    3    3    0    0 -0.40779570349E+02 -0.25627124390E+02  0.14181194905E+02  0.50207859460E+02  0.51100000000E-03 0. -1.
         23    2    1    0    0    0  0.29627116469E+01 -0.28114543975E+02 -0.13640807446E+01  0.96696891346E+02  0.92462007530E+02 0.  0.
         11    1    3    3    0    0  0.43742281996E+02 -0.24874195847E+01 -0.15545275650E+02  0.46489031886E+02  0.51100000000E-03 0.  1.
         22    1    1    0    0    0 -0.29627116469E+01  0.28114543975E+02  0.13640807446E+01  0.28303108654E+02  0.00000000000E+00 0.  1.
</event>
<event>
 5    1  0.1096978E-009  0.9118800E+02  0.7818608E-02  0.1130116E+00
         25   -1    0    0    0    0  0.00000000000E+00  0.00000000000E+00  0.99999998245E-14  0.12500000000E+03  0.12500000000E+03 0.  0.
        -11    1    3    3    0    0 -0.18671698611E+02 -0.51033821501E+02  0.10897187729E+02  0.55424109977E+02  0.51100000000E-03 0.  1.
         23    2    1    0    0    0 -0.14471719682E+02 -0.13274531430E+02  0.22487451865E+02  0.95144860633E+02  0.90339444088E+02 0.  0.
         11    1    3    3    0    0  0.41999789292E+01  0.37759290071E+02  0.11590264136E+02  0.39720750656E+02  0.51100000000E-03 0. -1.
         22    1    1    0    0    0  0.14471719682E+02  0.13274531430E+02 -0.22487451865E+02  0.29855139367E+02  0.00000000000E+00 0. -1.
</event>
<event>
 5    1  0.1096978E-009  0.9118800E+02  0.7818608E-02  0.1130116E+00
         25   -1    0    0    0    0  0.00000000000E+00  0.00000000000E+00  0.99999998245E-14  0.12500000000E+03  0.12500000000E+03 0.  0.
        -11    1    3    3    0    0 -0.17124538637E+02 -0.84971743632E+01 -0.38062887057E+02  0.42593839544E+02  0.51100000000E-03 0.  1.
         23    2    1    0    0    0 -0.13487991416E+02 -0.15542025981E+02  0.17051079798E+02  0.98275108862E+02  0.94571545485E+02 0.  0.
         11    1    3    3    0    0  0.36365472209E+01 -0.70448516180E+01  0.55113966856E+02  0.55681269318E+02  0.51100000000E-03 0. -1.
         22    1    1    0    0    0  0.13487991416E+02  0.15542025981E+02 -0.17051079798E+02  0.26724891138E+02  0.00000000000E+00 0.  1.
</event>
<event>
 5    1  0.1096978E-009  0.9118800E+02  0.7818608E-02  0.1130116E+00
         25   -1    0    0    0    0  0.00000000000E+00  0.00000000000E+00  0.99999998245E-14  0.12500000000E+03  0.12500000000E+03 0.  0.
        -11    1    3    3    0    0 -0.25495039070E+02 -0.11170181414E+02 -0.19175117168E+02  0.33800223204E+02  0.51100000000E-03 0. -1.
         23    2    1    0    0    0  0.14144183601E+02 -0.63966242088E+01  0.26390132771E+02  0.94382785256E+02  0.89278756230E+02 0.  0.
         11    1    3    3    0    0  0.39639222671E+02  0.47735572049E+01  0.45565249940E+02  0.60582562051E+02  0.51100000000E-03 0.  1.
         22    1    1    0    0    0 -0.14144183601E+02  0.63966242088E+01 -0.26390132771E+02  0.30617214744E+02  0.00000000000E+00 0.  1.
</event>
<event>
 5    1  0.1096978E-009  0.9118800E+02  0.7818608E-02  0.1130116E+00
         25   -1    0    0    0    0  0.00000000000E+00  0.00000000000E+00  0.99999998245E-14  0.12500000000E+03  0.12500000000E+03 0.  0.
        -11    1    3    3    0    0 -0.46849031023E+02  0.58656507204E+01 -0.70226797734E+00  0.47220024849E+02  0.51100000000E-03 0.  1.
         23    2    1    0    0    0 -0.39372725115E+01 -0.18373019944E+02  0.17073120553E+02  0.99611785764E+02  0.96322097366E+02 0.  0.
         11    1    3    3    0    0  0.42911758512E+02 -0.24238670664E+02  0.17775388530E+02  0.52391760915E+02  0.51100000000E-03 0. -1.
         22    1    1    0    0    0  0.39372725115E+01  0.18373019944E+02 -0.17073120553E+02  0.25388214236E+02  0.00000000000E+00 0. -1.
</event>
<event>
 5    1  0.1096978E-009  0.9118800E+02  0.7818608E-02  0.1130116E+00
         25   -1    0    0    0    0  0.00000000000E+00  0.00000000000E+00  0.99999998245E-14  0.12500000000E+03  0.12500000000E+03 0.  0.
        -11    1    3    3    0    0  0.60261748878E+01  0.28941682904E+02 -0.22925687392E+02  0.37410198285E+02  0.51100000000E-03 0. -1.
         23    2    1    0    0    0 -0.56964730707E+01  0.56153042372E+01  0.28670287972E+02  0.95234804561E+02  0.90463811219E+02 0.  0.
         11    1    3    3    0    0 -0.11722647959E+02 -0.23326378667E+02  0.51595975364E+02  0.57824606275E+02  0.51100000000E-03 0.  1.
         22    1    1    0    0    0  0.56964730707E+01 -0.56153042372E+01 -0.28670287972E+02  0.29765195439E+02  0.00000000000E+00 0.  1.
</event>
<event>
 5    1  0.1096978E-009  0.9118800E+02  0.7818608E-02  0.1130116E+00
         25   -1    0    0    0    0  0.00000000000E+00  0.00000000000E+00  0.99999998245E-14  0.12500000000E+03  0.12500000000E+03 0.  0.
        -11    1    3    3    0    0 -0.27351277205E+02 -0.20454770771E+02 -0.24832820372E+02  0.42227467127E+02  0.51100000000E-03 0. -1.
         23    2    1    0    0    0  0.15939212188E+02 -0.24896488591E+02  0.50399952436E+01  0.95011749278E+02  0.90155073731E+02 0.  0.
         11    1    3    3    0    0  0.43290489393E+02 -0.44417178194E+01  0.29872815616E+02  0.52784282151E+02  0.51100000000E-03 0.  1.
         22    1    1    0    0    0 -0.15939212188E+02  0.24896488591E+02 -0.50399952436E+01  0.29988250722E+02  0.00000000000E+00 0.  1.
</event>
<event>
 5    1  0.1096978E-009  0.9118800E+02  0.7818608E-02  0.1130116E+00
         25   -1    0    0    0    0  0.00000000000E+00  0.00000000000E+00  0.99999998245E-14  0.12500000000E+03  0.12500000000E+03 0.  0.
        -11    1    3    3    0    0  0.23044225511E+02 -0.42062333181E+02  0.18662724873E+02  0.51464293466E+02  0.51100000000E-03 0. -1.
         23    2    1    0    0    0 -0.85113243140E+01 -0.10357823923E+02  0.24989791146E+02  0.96641283183E+02  0.92386799899E+02 0.  0.
         11    1    3    3    0    0 -0.31555549825E+02  0.31704509257E+02  0.63270662728E+01  0.45176989717E+02  0.51100000000E-03 0.  1.
         22    1    1    0    0    0  0.85113243140E+01  0.10357823923E+02 -0.24989791146E+02  0.28358716817E+02  0.00000000000E+00 0. -1.
</event>
<event>
 5    1  0.1096978E-009  0.9118800E+02  0.7818608E-02  0.1130116E+00
         25   -1    0    0    0    0  0.00000000000E+00  0.00000000000E+00  0.99999998245E-14  0.12500000000E+03  0.12500000000E+03 0.  0.
        -11    1    3    3    0    0  0.12817945339E+02  0.34369712215E+02 -0.41633647986E+01  0.36917617030E+02  0.51100000000E-03 0.  1.
         23    2    1    0    0    0 -0.23856833483E+02 -0.79480158815E+01  0.14535080507E+02  0.95955413144E+02  0.91454104807E+02 0.  0.
         11    1    3    3    0    0 -0.36674778821E+02 -0.42317728097E+02  0.18698445306E+02  0.59037796114E+02  0.51100000000E-03 0. -1.
         22    1    1    0    0    0  0.23856833483E+02  0.79480158815E+01 -0.14535080507E+02  0.29044586856E+02  0.00000000000E+00 0. -1.
</event>
<event>
 5    1  0.1096978E-009  0.9118800E+02  0.7818608E-02  0.1130116E+00
         25   -1    0    0    0    0  0.00000000000E+00  0.00000000000E+00  0.99999998245E-14  0.12500000000E+03  0.12500000000E+03 0.  0.
        -11    1    3    3    0    0  0.34014333413E+02  0.21402159906E+02 -0.38041999598E+02  0.55337338749E+02  0.51100000000E-03 0.  1.
         23    2    1    0    0    0  0.31059732829E+02  0.19238508999E+02 -0.55375422310E+01  0.88047441146E+02  0.79917834596E+02 0.  0.
         11    1    3    3    0    0 -0.29546005842E+01 -0.21636509070E+01  0.32504457367E+02  0.32710102397E+02  0.51100000000E-03 0. -1.
         22    1    1    0    0    0 -0.31059732829E+02 -0.19238508999E+02  0.55375422310E+01  0.36952558854E+02  0.00000000000E+00 0.  1.
</event>
<event>
 5    1  0.1096978E-009  0.9118800E+02  0.7818608E-02  0.1130116E+00
         25   -1    0    0    0    0  0.00000000000E+00  0.00000000000E+00  0.99999998245E-14  0.12500000000E+03  0.12500000000E+03 0.  0.
        -11    1    3    3    0    0  0.48773059074E+02  0.15632025241E+02  0.15155443633E+02  0.53412161316E+02  0.51100000000E-03 0. -1.
         23    2    1    0    0    0  0.21746549404E+02  0.72505506348E+01 -0.17159993167E+02  0.96365261290E+02  0.92012582414E+02 0.  0.
         11    1    3    3    0    0 -0.27026509669E+02 -0.83814746057E+01 -0.32315436800E+02  0.42953099973E+02  0.51100000000E-03 0.  1.
         22    1    1    0    0    0 -0.21746549404E+02 -0.72505506348E+01  0.17159993167E+02  0.28634738710E+02  0.00000000000E+00 0. -1.
</event>
<event>
 5    1  0.1096978E-009  0.9118800E+02  0.7818608E-02  0.1130116E+00
         25   -1    0    0    0    0  0.00000000000E+00  0.00000000000E+00  0.99999998245E-14  0.12500000000E+03  0.12500000000E+03 0.  0.
        -11    1    3    3    0    0 -0.48404482896E+02 -0.21479381436E+02  0.17829787040E+02  0.55877178682E+02  0.51100000000E-03 0. -1.
         23    2    1    0    0    0 -0.86341617279E+01 -0.23943325744E+02  0.14112664024E+02  0.95896754781E+02  0.91373895043E+02 0.  0.
         11    1    3    3    0    0  0.39770321168E+02 -0.24639443080E+01 -0.37171230163E+01  0.40019576099E+02  0.51100000000E-03 0.  1.
         22    1    1    0    0    0  0.86341617279E+01  0.23943325744E+02 -0.14112664024E+02  0.29103245219E+02  0.00000000000E+00 0. -1.
</event>
<event>
 5    1  0.1096978E-009  0.9118800E+02  0.7818608E-02  0.1130116E+00
         25   -1    0    0    0    0  0.00000000000E+00  0.00000000000E+00  0.99999998245E-14  0.12500000000E+03  0.12500000000E+03 0.  0.
        -11    1    3    3    0    0 -0.10842520265E+02 -0.25325351895E+02 -0.42213914627E+02  0.50407819658E+02  0.51100000000E-03 0. -1.
         23    2    1    0    0    0  0.62921341966E+01 -0.29452776278E+02 -0.14166812377E+01  0.94849312298E+02  0.89929572858E+02 0.  0.
         11    1    3    3    0    0  0.17134654461E+02 -0.41274243823E+01  0.40797233389E+02  0.44441492639E+02  0.51100000000E-03 0.  1.
         22    1    1    0    0    0 -0.62921341966E+01  0.29452776278E+02  0.14166812377E+01  0.30150687702E+02  0.00000000000E+00 0. -1.
</event>
<event>
 5    1  0.1096978E-009  0.9118800E+02  0.7818608E-02  0.1130116E+00
         25   -1    0    0    0    0  0.00000000000E+00  0.00000000000E+00  0.99999998245E-14  0.12500000000E+03  0.12500000000E+03 0.  0.
        -11    1    3    3    0    0  0.35026628448E+02  0.18674510095E+02  0.41444720067E+02  0.57386991988E+02  0.51100000000E-03 0.  1.
         23    2    1    0    0    0  0.18709655758E+02  0.19829586766E+02  0.50711408539E+01  0.97269507768E+02  0.93232917695E+02 0.  0.
         11    1    3    3    0    0 -0.16316972690E+02  0.11550766711E+01 -0.36373579213E+02  0.39882515780E+02  0.51100000000E-03 0. -1.
         22    1    1    0    0    0 -0.18709655758E+02 -0.19829586766E+02 -0.50711408539E+01  0.27730492232E+02  0.00000000000E+00 0.  1.
</event>
<event>
 5    1  0.1096978E-009  0.9118800E+02  0.7818608E-02  0.1130116E+00
         25   -1    0    0    0    0  0.00000000000E+00  0.00000000000E+00  0.99999998245E-14  0.12500000000E+03  0.12500000000E+03 0.  0.
        -11    1    3    3    0    0  0.81825788410E+01  0.34010394251E+02  0.57038763564E+01  0.35442851456E+02  0.51100000000E-03 0.  1.
         23    2    1    0    0    0 -0.19696496863E+02 -0.19400483345E+02  0.93838649149E+01  0.95804321151E+02  0.91247357703E+02 0.  0.
         11    1    3    3    0    0 -0.27879075704E+02 -0.53410877596E+02  0.36799885585E+01  0.60361469695E+02  0.51100000000E-03 0. -1.
         22    1    1    0    0    0  0.19696496863E+02  0.19400483345E+02 -0.93838649149E+01  0.29195678849E+02  0.00000000000E+00 0. -1.
</event>
<event>
 5    1  0.1096978E-009  0.9118800E+02  0.7818608E-02  0.1130116E+00
         25   -1    0    0    0    0  0.00000000000E+00  0.00000000000E+00  0.99999998245E-14  0.12500000000E+03  0.12500000000E+03 0.  0.
        -11    1    3    3    0    0  0.92116059453E+01  0.25714107915E+02 -0.47695197426E+02  0.54962722711E+02  0.51100000000E-03 0.  1.
         23    2    1    0    0    0  0.21140518680E+02  0.18019367155E+02 -0.96113000756E+01  0.95606187524E+02  0.90975529023E+02 0.  0.
         11    1    3    3    0    0  0.11928912734E+02 -0.76947407603E+01  0.38083897351E+02  0.40643464814E+02  0.51100000000E-03 0. -1.
         22    1    1    0    0    0 -0.21140518680E+02 -0.18019367155E+02  0.96113000756E+01  0.29393812476E+02  0.00000000000E+00 0.  1.
</event>
<event>
 5    1  0.1096978E-009  0.9118800E+02  0.7818608E-02  0.1130116E+00
         25   -1    0    0    0    0  0.00000000000E+00  0.00000000000E+00  0.99999998245E-14  0.12500000000E+03  0.12500000000E+03 0.  0.
        -11    1    3    3    0    0 -0.27080671397E+02 -0.19198653938E+02  0.55245457233E+01  0.33652216600E+02  0.51100000000E-03 0.  1.
         23    2    1    0    0    0  0.20396983362E+02  0.19633486726E+02 -0.59975710194E+01  0.96060725831E+02  0.91597933698E+02 0.  0.
         11    1    3    3    0    0  0.47477654759E+02  0.38832140665E+02 -0.11522116743E+02  0.62408509231E+02  0.51100000000E-03 0. -1.
         22    1    1    0    0    0 -0.20396983362E+02 -0.19633486726E+02  0.59975710194E+01  0.28939274169E+02  0.00000000000E+00 0. -1.
</event>
<event>
 5    1  0.1096978E-009  0.9118800E+02  0.7818608E-02  0.1130116E+00
         25   -1    0    0    0    0  0.00000000000E+00  0.00000000000E+00  0.99999998245E-14  0.12500000000E+03  0.12500000000E+03 0.  0.
        -11    1    3    3    0    0 -0.57283232011E+02  0.11858625192E+00  0.17575902366E+00  0.57283624395E+02  0.51100000000E-03 0. -1.
         23    2    1    0    0    0 -0.23361100677E+02 -0.47049685387E+01 -0.17113027368E+02  0.95661740687E+02  0.91051826845E+02 0.  0.
         11    1    3    3    0    0  0.33922131333E+02 -0.48235547907E+01 -0.17288786392E+02  0.38378116293E+02  0.51100000000E-03 0.  1.
         22    1    1    0    0    0  0.23361100677E+02  0.47049685387E+01  0.17113027368E+02  0.29338259313E+02  0.00000000000E+00 0. -1.
</event>
<event>
 5    1  0.1096978E-009  0.9118800E+02  0.7818608E-02  0.1130116E+00
         25   -1    0    0    0    0  0.00000000000E+00  0.00000000000E+00  0.99999998245E-14  0.12500000000E+03  0.12500000000E+03 0.  0.
        -11    1    3    3    0    0  0.10774672544E+02 -0.10571157422E+02  0.29546524305E+02  0.33178909512E+02  0.51100000000E-03 0. -1.
         23    2    1    0    0    0  0.85258842843E+00 -0.33692065203E+01 -0.30418064648E+02  0.94384038207E+02  0.89280510481E+02 0.  0.
         11    1    3    3    0    0 -0.99220841151E+01  0.72019509019E+01 -0.59964588953E+02  0.61205128694E+02  0.51100000000E-03 0.  1.
         22    1    1    0    0    0 -0.85258842843E+00  0.33692065203E+01  0.30418064648E+02  0.30615961793E+02  0.00000000000E+00 0.  1.
</event>
<event>
 5    1  0.1096978E-009  0.9118800E+02  0.7818608E-02  0.1130116E+00
         25   -1    0    0    0    0  0.00000000000E+00  0.00000000000E+00  0.99999998245E-14  0.12500000000E+03  0.12500000000E+03 0.  0.
        -11    1    3    3    0    0 -0.47003352216E+02  0.31893296767E+02 -0.23401873265E+02  0.61434071742E+02  0.51100000000E-03 0. -1.
         23    2    1    0    0    0 -0.29234616821E+02  0.14117023521E+02 -0.60489471353E+01  0.91976630469E+02  0.85843797780E+02 0.  0.
         11    1    3    3    0    0  0.17768735395E+02 -0.17776273247E+02  0.17352926130E+02  0.30542558727E+02  0.51100000000E-03 0.  1.
         22    1    1    0    0    0  0.29234616821E+02 -0.14117023521E+02  0.60489471353E+01  0.33023369531E+02  0.00000000000E+00 0. -1.
</event>
<event>
 5    1  0.1096978E-009  0.9118800E+02  0.7818608E-02  0.1130116E+00
         25   -1    0    0    0    0  0.00000000000E+00  0.00000000000E+00  0.99999998245E-14  0.12500000000E+03  0.12500000000E+03 0.  0.
        -11    1    3    3    0    0  0.45330500089E+02 -0.96458630361E+01 -0.40380124888E+01  0.46520989426E+02  0.51100000000E-03 0.  1.
         23    2    1    0    0    0  0.15284073191E+01 -0.17696423016E+02 -0.23848134398E+02  0.95263945608E+02  0.90504068428E+02 0.  0.
         11    1    3    3    0    0 -0.43802092770E+02 -0.80505599803E+01 -0.19810121910E+02  0.48742956182E+02  0.51100000000E-03 0. -1.
         22    1    1    0    0    0 -0.15284073191E+01  0.17696423016E+02  0.23848134398E+02  0.29736054392E+02  0.00000000000E+00 0. -1.
</event>
<event>
 5    1  0.1096978E-009  0.9118800E+02  0.7818608E-02  0.1130116E+00
         25   -1    0    0    0    0  0.00000000000E+00  0.00000000000E+00  0.99999998245E-14  0.12500000000E+03  0.12500000000E+03 0.  0.
        -11    1    3    3    0    0  0.24733400028E+02 -0.99277240328E+01 -0.12737352088E+02  0.29538803630E+02  0.51100000000E-03 0. -1.
         23    2    1    0    0    0 -0.19126570993E+02 -0.35298216496E+01  0.28775952252E+02  0.90267583055E+02  0.83318039845E+02 0.  0.
         11    1    3    3    0    0 -0.43859971021E+02  0.63979023832E+01  0.41513304340E+02  0.60728779425E+02  0.51100000000E-03 0.  1.
         22    1    1    0    0    0  0.19126570993E+02  0.35298216496E+01 -0.28775952252E+02  0.34732416945E+02  0.00000000000E+00 0.  1.
</event>
<event>
 5    1  0.1096978E-009  0.9118800E+02  0.7818608E-02  0.1130116E+00
         25   -1    0    0    0    0  0.00000000000E+00  0.00000000000E+00  0.99999998245E-14  0.12500000000E+03  0.12500000000E+03 0.  0.
        -11    1    3    3    0    0 -0.41067210343E+02 -0.30955815910E+02 -0.18414718682E+02  0.54624904287E+02  0.51100000000E-03 0.  1.
         23    2    1    0    0    0 -0.16658342142E+02  0.22081043757E+01 -0.23493860874E+02  0.96115097601E+02  0.91672102628E+02 0.  0.
         11    1    3    3    0    0  0.24408868201E+02  0.33163920285E+02 -0.50791421920E+01  0.41490193314E+02  0.51100000000E-03 0. -1.
         22    1    1    0    0    0  0.16658342142E+02 -0.22081043757E+01  0.23493860874E+02  0.28884902399E+02  0.00000000000E+00 0.  1.
</event>
<event>
 5    1  0.1096978E-009  0.9118800E+02  0.7818608E-02  0.1130116E+00
         25   -1    0    0    0    0  0.00000000000E+00  0.00000000000E+00  0.99999998245E-14  0.12500000000E+03  0.12500000000E+03 0.  0.
        -11    1    3    3    0    0  0.55632131201E+02 -0.50488878446E+01  0.27938912065E+02  0.62458050707E+02  0.51100000000E-03 0. -1.
         23    2    1    0    0    0  0.23806289880E+02 -0.24928181992E+01  0.13730099676E+02  0.97405268301E+02  0.93414758337E+02 0.  0.
         11    1    3    3    0    0 -0.31825841321E+02  0.25560696453E+01 -0.14208812389E+02  0.34947217594E+02  0.51100000000E-03 0.  1.
         22    1    1    0    0    0 -0.23806289880E+02  0.24928181992E+01 -0.13730099676E+02  0.27594731699E+02  0.00000000000E+00 0. -1.
</event>
<event>
 5    1  0.1096978E-009  0.9118800E+02  0.7818608E-02  0.1130116E+00
         25   -1    0    0    0    0  0.00000000000E+00  0.00000000000E+00  0.99999998245E-14  0.12500000000E+03  0.12500000000E+03 0.  0.
        -11    1    3    3    0    0  0.35446406832E+02 -0.49825094355E+01  0.72311048388E+01  0.36517968660E+02  0.51100000000E-03 0.  1.
         23    2    1    0    0    0 -0.21302709030E+02 -0.20251955484E+02  0.14067205379E+01  0.95573379813E+02  0.90930440191E+02 0.  0.
         11    1    3    3    0    0 -0.56749115862E+02 -0.15269446048E+02 -0.58243843009E+01  0.59055411154E+02  0.51100000000E-03 0. -1.
         22    1    1    0    0    0  0.21302709030E+02  0.20251955484E+02 -0.14067205379E+01  0.29426620187E+02  0.00000000000E+00 0. -1.
</event>
<event>
 5    1  0.1096978E-009  0.9118800E+02  0.7818608E-02  0.1130116E+00
         25   -1    0    0    0    0  0.00000000000E+00  0.00000000000E+00  0.99999998245E-14  0.12500000000E+03  0.12500000000E+03 0.  0.
        -11    1    3    3    0    0  0.17955508744E+02  0.28042819654E+02 -0.18808430344E+02  0.38243392641E+02  0.51100000000E-03 0. -1.
         23    2    1    0    0    0 -0.18253896275E+02  0.13812852853E+02  0.21021252838E+02  0.93921185607E+02  0.88630110018E+02 0.  0.
         11    1    3    3    0    0 -0.36209405018E+02 -0.14229966801E+02  0.39829683183E+02  0.55677792967E+02  0.51100000000E-03 0.  1.
         22    1    1    0    0    0  0.18253896275E+02 -0.13812852853E+02 -0.21021252838E+02  0.31078814393E+02  0.00000000000E+00 0.  1.
</event>
<event>
 5    1  0.1096978E-009  0.9118800E+02  0.7818608E-02  0.1130116E+00
         25   -1    0    0    0    0  0.00000000000E+00  0.00000000000E+00  0.99999998245E-14  0.12500000000E+03  0.12500000000E+03 0.  0.
        -11    1    3    3    0    0 -0.15286658125E+02  0.29607927876E+02 -0.47667462827E+01  0.33660558227E+02  0.51100000000E-03 0. -1.
         23    2    1    0    0    0  0.14211616587E+02 -0.25139578629E+02 -0.39332072905E+01  0.95854870403E+02  0.91316579002E+02 0.  0.
         11    1    3    3    0    0  0.29498274712E+02 -0.54747506505E+02  0.83353899226E+00  0.62194312176E+02  0.51100000000E-03 0.  1.
         22    1    1    0    0    0 -0.14211616587E+02  0.25139578629E+02  0.39332072905E+01  0.29145129597E+02  0.00000000000E+00 0.  1.
</event>
<event>
 5    1  0.1096978E-009  0.9118800E+02  0.7818608E-02  0.1130116E+00
         25   -1    0    0    0    0  0.00000000000E+00  0.00000000000E+00  0.99999998245E-14  0.12500000000E+03  0.12500000000E+03 0.  0.
        -11    1    3    3    0    0 -0.52798218423E+02  0.11166776259E+02 -0.14072295547E+02  0.55770765307E+02  0.51100000000E-03 0. -1.
         23    2    1    0    0    0 -0.23409430727E+02 -0.13836342839E+02 -0.14127191802E+02  0.94356511649E+02  0.89241962731E+02 0.  0.
         11    1    3    3    0    0  0.29388787696E+02 -0.25003119098E+02 -0.54896255646E-01  0.38585746342E+02  0.51100000000E-03 0.  1.
         22    1    1    0    0    0  0.23409430727E+02  0.13836342839E+02  0.14127191802E+02  0.30643488351E+02  0.00000000000E+00 0. -1.
</event>
<event>
 5    1  0.1096978E-009  0.9118800E+02  0.7818608E-02  0.1130116E+00
         25   -1    0    0    0    0  0.00000000000E+00  0.00000000000E+00  0.99999998245E-14  0.12500000000E+03  0.12500000000E+03 0.  0.
        -11    1    3    3    0    0  0.32523526592E+02 -0.92052183600E+01 -0.97023264678E+01  0.35166048487E+02  0.51100000000E-03 0. -1.
         23    2    1    0    0    0 -0.26127925172E+02 -0.13171315322E+02  0.38340189749E+01  0.95489803074E+02  0.90815476481E+02 0.  0.
         11    1    3    3    0    0 -0.58651451765E+02 -0.39660969618E+01  0.13536345443E+02  0.60323754587E+02  0.51100000000E-03 0.  1.
         22    1    1    0    0    0  0.26127925172E+02  0.13171315322E+02 -0.38340189749E+01  0.29510196926E+02  0.00000000000E+00 0.  1.
</event>
<event>
 5    1  0.1096978E-009  0.9118800E+02  0.7818608E-02  0.1130116E+00
         25   -1    0    0    0    0  0.00000000000E+00  0.00000000000E+00  0.99999998245E-14  0.12500000000E+03  0.12500000000E+03 0.  0.
        -11    1    3    3    0    0 -0.22864769137E+02  0.22762555550E+02 -0.18829251587E+01  0.32318369548E+02  0.51100000000E-03 0. -1.
         23    2    1    0    0    0  0.15093697146E+02 -0.26480878627E+02 -0.11480640217E+01  0.94497956177E+02  0.89439862724E+02 0.  0.
         11    1    3    3    0    0  0.37958466283E+02 -0.49243434177E+02  0.73486113701E+00  0.62179586628E+02  0.51100000000E-03 0.  1.
         22    1    1    0    0    0 -0.15093697146E+02  0.26480878627E+02  0.11480640217E+01  0.30502043823E+02  0.00000000000E+00 0.  1.
</event>
<event>
 5    1  0.1096978E-009  0.9118800E+02  0.7818608E-02  0.1130116E+00
         25   -1    0    0    0    0  0.00000000000E+00  0.00000000000E+00  0.99999998245E-14  0.12500000000E+03  0.12500000000E+03 0.  0.
        -11    1    3    3    0    0 -0.38351309834E+02  0.15370473210E+02  0.44281349598E+02  0.60563291977E+02  0.51100000000E-03 0.  1.
         23    2    1    0    0    0 -0.24328261675E+02 -0.85653928853E+00  0.16802159300E+02  0.95421113394E+02  0.90720881547E+02 0.  0.
         11    1    3    3    0    0  0.14023048159E+02 -0.16227012498E+02 -0.27479190297E+02  0.34857821417E+02  0.51100000000E-03 0. -1.
         22    1    1    0    0    0  0.24328261675E+02  0.85653928853E+00 -0.16802159300E+02  0.29578886606E+02  0.00000000000E+00 0.  1.
</event>
<event>
 5    1  0.1096978E-009  0.9118800E+02  0.7818608E-02  0.1130116E+00
         25   -1    0    0    0    0  0.00000000000E+00  0.00000000000E+00  0.99999998245E-14  0.12500000000E+03  0.12500000000E+03 0.  0.
        -11    1    3    3    0    0 -0.26474942590E+02  0.25511011869E+02 -0.11094126017E+02  0.38403306421E+02  0.51100000000E-03 0.  1.
         23    2    1    0    0    0 -0.31438964564E+01 -0.83252612130E+01  0.28299741857E+02  0.95334035522E+02  0.90600821633E+02 0.  0.
         11    1    3    3    0    0  0.23331046133E+02 -0.33836273082E+02  0.39393867874E+02  0.56930729102E+02  0.51100000000E-03 0. -1.
         22    1    1    0    0    0  0.31438964564E+01  0.83252612130E+01 -0.28299741857E+02  0.29665964478E+02  0.00000000000E+00 0.  1.
</event>
<event>
 5    1  0.1096978E-009  0.9118800E+02  0.7818608E-02  0.1130116E+00
         25   -1    0    0    0    0  0.00000000000E+00  0.00000000000E+00  0.99999998245E-14  0.12500000000E+03  0.12500000000E+03 0.  0.
        -11    1    3    3    0    0  0.88180424961E+01  0.47953372554E+02 -0.17827615230E+02  0.51914426490E+02  0.51100000000E-03 0.  1.
         23    2    1    0    0    0  0.18875921380E+02  0.51262538245E+01 -0.21346714216E+02  0.96047261027E+02  0.91579556981E+02 0.  0.
         11    1    3    3    0    0  0.10057878884E+02 -0.42827118730E+02 -0.35190989860E+01  0.44132834537E+02  0.51100000000E-03 0. -1.
         22    1    1    0    0    0 -0.18875921380E+02 -0.51262538245E+01  0.21346714216E+02  0.28952738973E+02  0.00000000000E+00 0.  1.
</event>
<event>
 5    1  0.1096978E-009  0.9118800E+02  0.7818608E-02  0.1130116E+00
         25   -1    0    0    0    0  0.00000000000E+00  0.00000000000E+00  0.99999998245E-14  0.12500000000E+03  0.12500000000E+03 0.  0.
        -11    1    3    3    0    0  0.55208346971E+02 -0.22129616181E+02 -0.18774564092E+02  0.62371193228E+02  0.51100000000E-03 0.  1.
         23    2    1    0    0    0  0.25058425821E+02 -0.11690100650E+02 -0.11218185508E+02  0.95159912133E+02  0.90360268001E+02 0.  0.
         11    1    3    3    0    0 -0.30149921150E+02  0.10439515531E+02  0.75563785842E+01  0.32788718905E+02  0.51100000000E-03 0. -1.
         22    1    1    0    0    0 -0.25058425821E+02  0.11690100650E+02  0.11218185508E+02  0.29840087867E+02  0.00000000000E+00 0.  1.
</event>
<event>
 5    1  0.1096978E-009  0.9118800E+02  0.7818608E-02  0.1130116E+00
         25   -1    0    0    0    0  0.00000000000E+00  0.00000000000E+00  0.99999998245E-14  0.12500000000E+03  0.12500000000E+03 0.  0.
        -11    1    3    3    0    0 -0.52412883278E+02 -0.15536677431E+02  0.27581461542E+02  0.61231002769E+02  0.51100000000E-03 0.  1.
         23    2    1    0    0    0 -0.26846734484E+02  0.12470026519E+01  0.11761463820E+02  0.95663432388E+02  0.91054149257E+02 0.  0.
         11    1    3    3    0    0  0.25566148794E+02  0.16783680083E+02 -0.15819997722E+02  0.34432429619E+02  0.51100000000E-03 0. -1.
         22    1    1    0    0    0  0.26846734484E+02 -0.12470026519E+01 -0.11761463820E+02  0.29336567612E+02  0.00000000000E+00 0.  1.
</event>
<event>
 5    1  0.1096978E-009  0.9118800E+02  0.7818608E-02  0.1130116E+00
         25   -1    0    0    0    0  0.00000000000E+00  0.00000000000E+00  0.99999998245E-14  0.12500000000E+03  0.12500000000E+03 0.  0.
        -11    1    3    3    0    0  0.41412989013E+00  0.44101014262E+02  0.20383879198E+02  0.48585733440E+02  0.51100000000E-03 0. -1.
         23    2    1    0    0    0 -0.11179230548E+02  0.88431742871E+00  0.28780895473E+02  0.94111536827E+02  0.88898167623E+02 0.  0.
         11    1    3    3    0    0 -0.11593360438E+02 -0.43216696833E+02  0.83970162752E+01  0.45525803387E+02  0.51100000000E-03 0.  1.
         22    1    1    0    0    0  0.11179230548E+02 -0.88431742871E+00 -0.28780895473E+02  0.30888463173E+02  0.00000000000E+00 0.  1.
</event>
<event>
 5    1  0.1096978E-009  0.9118800E+02  0.7818608E-02  0.1130116E+00
         25   -1    0    0    0    0  0.00000000000E+00  0.00000000000E+00  0.99999998245E-14  0.12500000000E+03  0.12500000000E+03 0.  0.
        -11    1    3    3    0    0 -0.20954746097E+02  0.30844896729E+02  0.47722657259E+02  0.60563694193E+02  0.51100000000E-03 0.  1.
         23    2    1    0    0    0 -0.12420998584E+02  0.21701886635E+02  0.14425481192E+02  0.96132239489E+02  0.91695473564E+02 0.  0.
         11    1    3    3    0    0  0.85337475136E+01 -0.91430100940E+01 -0.33297176066E+02  0.35568545296E+02  0.51100000000E-03 0. -1.
         22    1    1    0    0    0  0.12420998584E+02 -0.21701886635E+02 -0.14425481192E+02  0.28867760511E+02  0.00000000000E+00 0.  1.
</event>
<event>
 5    1  0.1096978E-009  0.9118800E+02  0.7818608E-02  0.1130116E+00
         25   -1    0    0    0    0  0.00000000000E+00  0.00000000000E+00  0.99999998245E-14  0.12500000000E+03  0.12500000000E+03 0.  0.
        -11    1    3    3    0    0  0.72838982416E+01 -0.25055070823E+02 -0.46087946278E+02  0.52961406137E+02  0.51100000000E-03 0.  1.
         23    2    1    0    0    0  0.26992311865E+02 -0.54222860423E+01 -0.22043392151E+02  0.89731072837E+02  0.82509200755E+02 0.  0.
         11    1    3    3    0    0  0.19708413623E+02  0.19632784781E+02  0.24044554127E+02  0.36769666700E+02  0.51100000000E-03 0. -1.
         22    1    1    0    0    0 -0.26992311865E+02  0.54222860423E+01  0.22043392151E+02  0.35268927163E+02  0.00000000000E+00 0.  1.
</event>
<event>
 5    1  0.1096978E-009  0.9118800E+02  0.7818608E-02  0.1130116E+00
         25   -1    0    0    0    0  0.00000000000E+00  0.00000000000E+00  0.99999998245E-14  0.12500000000E+03  0.12500000000E+03 0.  0.
        -11    1    3    3    0    0 -0.32571488208E+02  0.43052471771E+01 -0.13218220766E+02  0.35414098292E+02  0.51100000000E-03 0. -1.
         23    2    1    0    0    0  0.10110349540E+02 -0.15682918889E+02  0.23380838205E+02  0.95086178648E+02  0.90258211051E+02 0.  0.
         11    1    3    3    0    0  0.42681837748E+02 -0.19988166066E+02  0.36599058971E+02  0.59672080356E+02  0.51100000000E-03 0.  1.
         22    1    1    0    0    0 -0.10110349540E+02  0.15682918889E+02 -0.23380838205E+02  0.29913821352E+02  0.00000000000E+00 0.  1.
</event>
<event>
 5    1  0.1096978E-009  0.9118800E+02  0.7818608E-02  0.1130116E+00
         25   -1    0    0    0    0  0.00000000000E+00  0.00000000000E+00  0.99999998245E-14  0.12500000000E+03  0.12500000000E+03 0.  0.
        -11    1    3    3    0    0  0.13227635045E+02  0.18438565111E+02 -0.32043629133E+02  0.39265063104E+02  0.51100000000E-03 0.  1.
         23    2    1    0    0    0  0.21808847880E+02 -0.98069058004E+01  0.16406773868E+02  0.96000284898E+02  0.91515415229E+02 0.  0.
         11    1    3    3    0    0  0.85812128349E+01 -0.28245470912E+02  0.48450403002E+02  0.56735221794E+02  0.51100000000E-03 0. -1.
         22    1    1    0    0    0 -0.21808847880E+02  0.98069058004E+01 -0.16406773868E+02  0.28999715102E+02  0.00000000000E+00 0. -1.
</event>
<event>
 5    1  0.1096978E-009  0.9118800E+02  0.7818608E-02  0.1130116E+00
         25   -1    0    0    0    0  0.00000000000E+00  0.00000000000E+00  0.99999998245E-14  0.12500000000E+03  0.12500000000E+03 0.  0.
        -11    1    3    3    0    0  0.45385900198E+02 -0.37962920548E+02  0.60450210973E+01  0.59477773610E+02  0.51100000000E-03 0.  1.
         23    2    1    0    0    0  0.10521890221E+02 -0.25091549202E+02  0.78381369240E+01  0.96685120420E+02  0.92446092968E+02 0.  0.
         11    1    3    3    0    0 -0.34864009977E+02  0.12871371346E+02  0.17931158267E+01  0.37207346810E+02  0.51100000000E-03 0. -1.
         22    1    1    0    0    0 -0.10521890221E+02  0.25091549202E+02 -0.78381369240E+01  0.28314879580E+02  0.00000000000E+00 0.  1.
</event>
<event>
 5    1  0.1096978E-009  0.9118800E+02  0.7818608E-02  0.1130116E+00
         25   -1    0    0    0    0  0.00000000000E+00  0.00000000000E+00  0.99999998245E-14  0.12500000000E+03  0.12500000000E+03 0.  0.
        -11    1    3    3    0    0  0.38825880829E+02  0.59713834364E+01 -0.28184225960E+02  0.48347254684E+02  0.51100000000E-03 0.  1.
         23    2    1    0    0    0 -0.59927565214E+01  0.19083285212E+02 -0.21691937011E+02  0.95493644134E+02  0.90820763228E+02 0.  0.
         11    1    3    3    0    0 -0.44818637350E+02  0.13111901776E+02  0.64922889485E+01  0.47146389450E+02  0.51100000000E-03 0. -1.
         22    1    1    0    0    0  0.59927565214E+01 -0.19083285212E+02  0.21691937011E+02  0.29506355866E+02  0.00000000000E+00 0.  1.
</event>
<event>
 5    1  0.1096978E-009  0.9118800E+02  0.7818608E-02  0.1130116E+00
         25   -1    0    0    0    0  0.00000000000E+00  0.00000000000E+00  0.99999998245E-14  0.12500000000E+03  0.12500000000E+03 0.  0.
        -11    1    3    3    0    0  0.25863397508E+02  0.62730942624E+01  0.34782834913E+02  0.43796262936E+02  0.51100000000E-03 0.  1.
         23    2    1    0    0    0  0.30039651270E+02 -0.18349186325E+01 -0.12836515062E+02  0.92281141619E+02  0.86286067269E+02 0.  0.
         11    1    3    3    0    0  0.41762537617E+01 -0.81080128949E+01 -0.47619349975E+02  0.48484878683E+02  0.51100000000E-03 0. -1.
         22    1    1    0    0    0 -0.30039651270E+02  0.18349186325E+01  0.12836515062E+02  0.32718858381E+02  0.00000000000E+00 0. -1.
</event>
<event>
 5    1  0.1096978E-009  0.9118800E+02  0.7818608E-02  0.1130116E+00
         25   -1    0    0    0    0  0.00000000000E+00  0.00000000000E+00  0.99999998245E-14  0.12500000000E+03  0.12500000000E+03 0.  0.
        -11    1    3    3    0    0 -0.26555698466E+02 -0.21267249608E+02 -0.16272122690E+02  0.37713167515E+02  0.51100000000E-03 0.  1.
         23    2    1    0    0    0 -0.20384774680E+02  0.11936258163E+02  0.24708381807E+02  0.90816415793E+02  0.84137411110E+02 0.  0.
         11    1    3    3    0    0  0.61709237859E+01  0.33203507771E+02  0.40980504497E+02  0.53103248278E+02  0.51100000000E-03 0. -1.
         22    1    1    0    0    0  0.20384774680E+02 -0.11936258163E+02 -0.24708381807E+02  0.34183584207E+02  0.00000000000E+00 0. -1.
</event>
<event>
 5    1  0.1096978E-009  0.9118800E+02  0.7818608E-02  0.1130116E+00
         25   -1    0    0    0    0  0.00000000000E+00  0.00000000000E+00  0.99999998245E-14  0.12500000000E+03  0.12500000000E+03 0.  0.
        -11    1    3    3    0    0 -0.47054440343E+02 -0.32155075401E+02  0.33459147321E+01  0.57089967382E+02  0.51100000000E-03 0. -1.
         23    2    1    0    0    0 -0.13003459178E+02 -0.24350975336E+02  0.14573683849E+02  0.93783782880E+02  0.88436110950E+02 0.  0.
         11    1    3    3    0    0  0.34050981165E+02  0.78041000654E+01  0.11227769117E+02  0.36693815497E+02  0.51100000000E-03 0.  1.
         22    1    1    0    0    0  0.13003459178E+02  0.24350975336E+02 -0.14573683849E+02  0.31216217120E+02  0.00000000000E+00 0. -1.
</event>
<event>
 5    1  0.1096978E-009  0.9118800E+02  0.7818608E-02  0.1130116E+00
         25   -1    0    0    0    0  0.00000000000E+00  0.00000000000E+00  0.99999998245E-14  0.12500000000E+03  0.12500000000E+03 0.  0.
        -11    1    3    3    0    0 -0.79150581161E+01 -0.45091604039E+02 -0.18871126646E+02  0.49517878801E+02  0.51100000000E-03 0.  1.
         23    2    1    0    0    0 -0.89991313498E+01 -0.31188597340E+00 -0.28308321604E+02  0.95294062715E+02  0.90545655218E+02 0.  0.
         11    1    3    3    0    0 -0.10840732337E+01  0.44779718066E+02 -0.94371949579E+01  0.45776183914E+02  0.51100000000E-03 0. -1.
         22    1    1    0    0    0  0.89991313498E+01  0.31188597340E+00  0.28308321604E+02  0.29705937285E+02  0.00000000000E+00 0.  1.
</event>
<event>
 5    1  0.1096978E-009  0.9118800E+02  0.7818608E-02  0.1130116E+00
         25   -1    0    0    0    0  0.00000000000E+00  0.00000000000E+00  0.99999998245E-14  0.12500000000E+03  0.12500000000E+03 0.  0.
        -11    1    3    3    0    0  0.87843908311E+01  0.63271551464E+01 -0.37343064199E+02  0.38880623176E+02  0.51100000000E-03 0. -1.
         23    2    1    0    0    0  0.54474543335E+01  0.21040441343E+02  0.18334078082E+02  0.96565630836E+02  0.92284384968E+02 0.  0.
         11    1    3    3    0    0 -0.33369364976E+01  0.14713286197E+02  0.55677142281E+02  0.57685007660E+02  0.51100000000E-03 0.  1.
         22    1    1    0    0    0 -0.54474543335E+01 -0.21040441343E+02 -0.18334078082E+02  0.28434369164E+02  0.00000000000E+00 0.  1.
</event>
<event>
 5    1  0.1096978E-009  0.9118800E+02  0.7818608E-02  0.1130116E+00
         25   -1    0    0    0    0  0.00000000000E+00  0.00000000000E+00  0.99999998245E-14  0.12500000000E+03  0.12500000000E+03 0.  0.
        -11    1    3    3    0    0  0.29882509168E+02  0.46318155369E+01  0.38692309863E+02  0.49107157443E+02  0.51100000000E-03 0.  1.
         23    2    1    0    0    0  0.35184127079E+02  0.13604258234E+01 -0.14788931819E+01  0.89758537462E+02  0.82550798697E+02 0.  0.
         11    1    3    3    0    0  0.53016179110E+01 -0.32713897135E+01 -0.40171203045E+02  0.40651380019E+02  0.51100000000E-03 0. -1.
         22    1    1    0    0    0 -0.35184127079E+02 -0.13604258234E+01  0.14788931819E+01  0.35241462538E+02  0.00000000000E+00 0.  1.
</event>
<event>
 5    1  0.1096978E-009  0.9118800E+02  0.7818608E-02  0.1130116E+00
         25   -1    0    0    0    0  0.00000000000E+00  0.00000000000E+00  0.99999998245E-14  0.12500000000E+03  0.12500000000E+03 0.  0.
        -11    1    3    3    0    0  0.33612229478E+02 -0.46331734288E+02 -0.12637966495E+02  0.58618510472E+02  0.51100000000E-03 0. -1.
         23    2    1    0    0    0  0.68956184519E+01 -0.24320029678E+02 -0.18430100036E+02  0.93716106625E+02  0.88340402174E+02 0.  0.
         11    1    3    3    0    0 -0.26716611026E+02  0.22011704609E+02 -0.57921335409E+01  0.35097596153E+02  0.51100000000E-03 0.  1.
         22    1    1    0    0    0 -0.68956184519E+01  0.24320029678E+02  0.18430100036E+02  0.31283893375E+02  0.00000000000E+00 0. -1.
</event>
<event>
 5    1  0.1096978E-009  0.9118800E+02  0.7818608E-02  0.1130116E+00
         25   -1    0    0    0    0  0.00000000000E+00  0.00000000000E+00  0.99999998245E-14  0.12500000000E+03  0.12500000000E+03 0.  0.
        -11    1    3    3    0    0  0.27302150547E+02 -0.83938424432E+01 -0.24659078783E+02  0.37735052434E+02  0.51100000000E-03 0.  1.
         23    2    1    0    0    0 -0.24722727098E+02 -0.90326728339E+01  0.58325182653E+01  0.98040387929E+02  0.94260792391E+02 0.  0.
         11    1    3    3    0    0 -0.52024877646E+02 -0.63883039064E+00  0.30491597049E+02  0.60305335495E+02  0.51100000000E-03 0. -1.
         22    1    1    0    0    0  0.24722727098E+02  0.90326728339E+01 -0.58325182653E+01  0.26959612071E+02  0.00000000000E+00 0. -1.
</event>
<event>
 5    1  0.1096978E-009  0.9118800E+02  0.7818608E-02  0.1130116E+00
         25   -1    0    0    0    0  0.00000000000E+00  0.00000000000E+00  0.99999998245E-14  0.12500000000E+03  0.12500000000E+03 0.  0.
        -11    1    3    3    0    0  0.21515951978E+02 -0.35802736247E+02  0.44999008681E+02  0.61397743402E+02  0.51100000000E-03 0.  1.
         23    2    1    0    0    0  0.10667136810E+02 -0.22419657656E+02  0.14997503566E+02  0.95993897705E+02  0.91506690610E+02 0.  0.
         11    1    3    3    0    0 -0.10848815167E+02  0.13383078591E+02 -0.30001505116E+02  0.34596154303E+02  0.51100000000E-03 0. -1.
         22    1    1    0    0    0 -0.10667136810E+02  0.22419657656E+02 -0.14997503566E+02  0.29006102295E+02  0.00000000000E+00 0.  1.
</event>
<event>
 5    1  0.1096978E-009  0.9118800E+02  0.7818608E-02  0.1130116E+00
         25   -1    0    0    0    0  0.00000000000E+00  0.00000000000E+00  0.99999998245E-14  0.12500000000E+03  0.12500000000E+03 0.  0.
        -11    1    3    3    0    0 -0.29195913626E+01 -0.30613427676E+02 -0.37507840455E+02  0.48503031490E+02  0.51100000000E-03 0.  1.
         23    2    1    0    0    0 -0.15814180446E+02  0.73224903202E+01 -0.31475429824E+02  0.89022092191E+02  0.81428023726E+02 0.  0.
         11    1    3    3    0    0 -0.12894589084E+02  0.37935917996E+02  0.60324106313E+01  0.40519060702E+02  0.51100000000E-03 0. -1.
         22    1    1    0    0    0  0.15814180446E+02 -0.73224903202E+01  0.31475429824E+02  0.35977907809E+02  0.00000000000E+00 0.  1.
</event>
<event>
 5    1  0.1096978E-009  0.9118800E+02  0.7818608E-02  0.1130116E+00
         25   -1    0    0    0    0  0.00000000000E+00  0.00000000000E+00  0.99999998245E-14  0.12500000000E+03  0.12500000000E+03 0.  0.
        -11    1    3    3    0    0 -0.52310766973E+02  0.14731408831E+02 -0.65506912887E+01  0.54738855524E+02  0.51100000000E-03 0.  1.
         23    2    1    0    0    0 -0.18498229957E+02  0.14249745598E+02  0.17145551625E+02  0.96030883658E+02  0.91557200232E+02 0.  0.
         11    1    3    3    0    0  0.33812537016E+02 -0.48166323357E+00  0.23696242913E+02  0.41292028134E+02  0.51100000000E-03 0. -1.
         22    1    1    0    0    0  0.18498229957E+02 -0.14249745598E+02 -0.17145551625E+02  0.28969116342E+02  0.00000000000E+00 0.  1.
</event>
<event>
 5    1  0.1096978E-009  0.9118800E+02  0.7818608E-02  0.1130116E+00
         25   -1    0    0    0    0  0.00000000000E+00  0.00000000000E+00  0.99999998245E-14  0.12500000000E+03  0.12500000000E+03 0.  0.
        -11    1    3    3    0    0  0.24688337911E+02  0.23182711209E+02 -0.44077466807E+01  0.34152311179E+02  0.51100000000E-03 0. -1.
         23    2    1    0    0    0 -0.15472180077E+02 -0.22949993150E+02  0.71817531026E+01  0.96405103261E+02  0.92066692214E+02 0.  0.
         11    1    3    3    0    0 -0.40160517988E+02 -0.46132704358E+02  0.11589499783E+02  0.62252792082E+02  0.51100000000E-03 0.  1.
         22    1    1    0    0    0  0.15472180077E+02  0.22949993150E+02 -0.71817531026E+01  0.28594896739E+02  0.00000000000E+00 0.  1.
</event>
<event>
 5    1  0.1096978E-009  0.9118800E+02  0.7818608E-02  0.1130116E+00
         25   -1    0    0    0    0  0.00000000000E+00  0.00000000000E+00  0.99999998245E-14  0.12500000000E+03  0.12500000000E+03 0.  0.
        -11    1    3    3    0    0 -0.18951543874E+02  0.30192313200E+02  0.85088143004E+00  0.35657548865E+02  0.51100000000E-03 0. -1.
         23    2    1    0    0    0  0.24496725848E+02 -0.92395532025E+01 -0.12737962999E+02  0.95884460815E+02  0.91357075280E+02 0.  0.
         11    1    3    3    0    0  0.43448269722E+02 -0.39431866403E+02 -0.13588844429E+02  0.60226911950E+02  0.51100000000E-03 0.  1.
         22    1    1    0    0    0 -0.24496725848E+02  0.92395532025E+01  0.12737962999E+02  0.29115539185E+02  0.00000000000E+00 0.  1.
</event>
<event>
 5    1  0.1096978E-009  0.9118800E+02  0.7818608E-02  0.1130116E+00
         25   -1    0    0    0    0  0.00000000000E+00  0.00000000000E+00  0.99999998245E-14  0.12500000000E+03  0.12500000000E+03 0.  0.
        -11    1    3    3    0    0 -0.18522311767E+02 -0.53755637030E+02 -0.25204442572E+02  0.62193315327E+02  0.51100000000E-03 0.  1.
         23    2    1    0    0    0 -0.50014767449E+01 -0.27683977926E+02 -0.13280143154E+02  0.93890843701E+02  0.88587306795E+02 0.  0.
         11    1    3    3    0    0  0.13520835022E+02  0.26071659104E+02  0.11924299419E+02  0.31697528374E+02  0.51100000000E-03 0. -1.
         22    1    1    0    0    0  0.50014767449E+01  0.27683977926E+02  0.13280143154E+02  0.31109156299E+02  0.00000000000E+00 0.  1.
</event>
<event>
 5    1  0.1096978E-009  0.9118800E+02  0.7818608E-02  0.1130116E+00
         25   -1    0    0    0    0  0.00000000000E+00  0.00000000000E+00  0.99999998245E-14  0.12500000000E+03  0.12500000000E+03 0.  0.
        -11    1    3    3    0    0 -0.33387494922E+02  0.32779337575E+00 -0.34283850004E+02  0.47856187030E+02  0.51100000000E-03 0.  1.
         23    2    1    0    0    0 -0.68523011028E+01 -0.28084264150E+02 -0.72847487540E+01  0.95188131765E+02  0.90399297239E+02 0.  0.
         11    1    3    3    0    0  0.26535193819E+02 -0.28412057526E+02  0.26999101250E+02  0.47331944735E+02  0.51100000000E-03 0. -1.
         22    1    1    0    0    0  0.68523011028E+01  0.28084264150E+02  0.72847487540E+01  0.29811868235E+02  0.00000000000E+00 0.  1.
</event>
<event>
 5    1  0.1096978E-009  0.9118800E+02  0.7818608E-02  0.1130116E+00
         25   -1    0    0    0    0  0.00000000000E+00  0.00000000000E+00  0.99999998245E-14  0.12500000000E+03  0.12500000000E+03 0.  0.
        -11    1    3    3    0    0 -0.31685521883E+02 -0.26648093916E+02  0.27572502000E+02  0.49742698692E+02  0.51100000000E-03 0.  1.
         23    2    1    0    0    0 -0.25718732794E+02 -0.85157601220E+01 -0.13275081352E+02  0.94830492681E+02  0.89903410225E+02 0.  0.
         11    1    3    3    0    0  0.59667890892E+01  0.18132333794E+02 -0.40847583351E+02  0.45087793989E+02  0.51100000000E-03 0. -1.
         22    1    1    0    0    0  0.25718732794E+02  0.85157601220E+01  0.13275081352E+02  0.30169507319E+02  0.00000000000E+00 0.  1.
</event>
<event>
 5    1  0.1096978E-009  0.9118800E+02  0.7818608E-02  0.1130116E+00
         25   -1    0    0    0    0  0.00000000000E+00  0.00000000000E+00  0.99999998245E-14  0.12500000000E+03  0.12500000000E+03 0.  0.
        -11    1    3    3    0    0  0.39461917434E+02  0.20016401140E+02 -0.76497178232E+01  0.44904536800E+02  0.51100000000E-03 0. -1.
         23    2    1    0    0    0  0.20598296131E+02 -0.14018846391E+02  0.20337863068E+02  0.92837187129E+02  0.87087868169E+02 0.  0.
         11    1    3    3    0    0 -0.18863621303E+02 -0.34035247531E+02  0.27987580891E+02  0.47932650329E+02  0.51100000000E-03 0.  1.
         22    1    1    0    0    0 -0.20598296131E+02  0.14018846391E+02 -0.20337863068E+02  0.32162812871E+02  0.00000000000E+00 0. -1.
</event>
<event>
 5    1  0.1096978E-009  0.9118800E+02  0.7818608E-02  0.1130116E+00
         25   -1    0    0    0    0  0.00000000000E+00  0.00000000000E+00  0.99999998245E-14  0.12500000000E+03  0.12500000000E+03 0.  0.
        -11    1    3    3    0    0 -0.47162574594E+02 -0.21789935434E+02 -0.25646322435E+02  0.57938273906E+02  0.51100000000E-03 0.  1.
         23    2    1    0    0    0 -0.10721273787E+02 -0.22675267994E+02 -0.14362261893E+02  0.96096919595E+02  0.91647312556E+02 0.  0.
         11    1    3    3    0    0  0.36441300807E+02 -0.88533255993E+00  0.11284060541E+02  0.38158645689E+02  0.51100000000E-03 0. -1.
         22    1    1    0    0    0  0.10721273787E+02  0.22675267994E+02  0.14362261893E+02  0.28903080405E+02  0.00000000000E+00 0.  1.
</event>
<event>
 5    1  0.1096978E-009  0.9118800E+02  0.7818608E-02  0.1130116E+00
         25   -1    0    0    0    0  0.00000000000E+00  0.00000000000E+00  0.99999998245E-14  0.12500000000E+03  0.12500000000E+03 0.  0.
        -11    1    3    3    0    0 -0.16416612857E+02 -0.55463057009E+02 -0.21532444054E+02  0.61719543239E+02  0.51100000000E-03 0.  1.
         23    2    1    0    0    0 -0.10938744396E+01 -0.28166938555E+02 -0.95319638576E+01  0.95243801926E+02  0.90476242636E+02 0.  0.
         11    1    3    3    0    0  0.15322738417E+02  0.27296118454E+02  0.12000480196E+02  0.33524258687E+02  0.51100000000E-03 0. -1.
         22    1    1    0    0    0  0.10938744396E+01  0.28166938555E+02  0.95319638576E+01  0.29756198074E+02  0.00000000000E+00 0.  1.
</event>
<event>
 5    1  0.1096978E-009  0.9118800E+02  0.7818608E-02  0.1130116E+00
         25   -1    0    0    0    0  0.00000000000E+00  0.00000000000E+00  0.99999998245E-14  0.12500000000E+03  0.12500000000E+03 0.  0.
        -11    1    3    3    0    0  0.34898711763E+01  0.13517367005E+02  0.34646933874E+02  0.37353827632E+02  0.51100000000E-03 0. -1.
         23    2    1    0    0    0 -0.21811658464E+02 -0.15236109677E+02 -0.10356737912E+02  0.96449176839E+02  0.92126511980E+02 0.  0.
         11    1    3    3    0    0 -0.25301529640E+02 -0.28753476682E+02 -0.45003671786E+02  0.59095349207E+02  0.51100000000E-03 0.  1.
         22    1    1    0    0    0  0.21811658464E+02  0.15236109677E+02  0.10356737912E+02  0.28550823161E+02  0.00000000000E+00 0.  1.
</event>
<event>
 5    1  0.1096978E-009  0.9118800E+02  0.7818608E-02  0.1130116E+00
         25   -1    0    0    0    0  0.00000000000E+00  0.00000000000E+00  0.99999998245E-14  0.12500000000E+03  0.12500000000E+03 0.  0.
        -11    1    3    3    0    0  0.59306974179E+02  0.58359723021E-01 -0.12220081050E+02  0.60552877498E+02  0.51100000000E-03 0.  1.
         23    2    1    0    0    0  0.24802928378E+02  0.71785754559E+00 -0.16312325683E+02  0.95305008086E+02  0.90560764250E+02 0.  0.
         11    1    3    3    0    0 -0.34504045801E+02  0.65949782257E+00 -0.40922446330E+01  0.34752130588E+02  0.51100000000E-03 0. -1.
         22    1    1    0    0    0 -0.24802928378E+02 -0.71785754559E+00  0.16312325683E+02  0.29694991914E+02  0.00000000000E+00 0.  1.
</event>
<event>
 5    1  0.1096978E-009  0.9118800E+02  0.7818608E-02  0.1130116E+00
         25   -1    0    0    0    0  0.00000000000E+00  0.00000000000E+00  0.99999998245E-14  0.12500000000E+03  0.12500000000E+03 0.  0.
        -11    1    3    3    0    0 -0.14427966919E+02 -0.64376327007E+01 -0.39301307579E+02  0.42358023111E+02  0.51100000000E-03 0. -1.
         23    2    1    0    0    0  0.27673185062E+02  0.20148632943E+01 -0.62184905113E+01  0.96565259456E+02  0.92283881929E+02 0.  0.
         11    1    3    3    0    0  0.42101151981E+02  0.84524959951E+01  0.33082817068E+02  0.54207236344E+02  0.51100000000E-03 0.  1.
         22    1    1    0    0    0 -0.27673185062E+02 -0.20148632943E+01  0.62184905113E+01  0.28434740544E+02  0.00000000000E+00 0. -1.
</event>
<event>
 5    1  0.1096978E-009  0.9118800E+02  0.7818608E-02  0.1130116E+00
         25   -1    0    0    0    0  0.00000000000E+00  0.00000000000E+00  0.99999998245E-14  0.12500000000E+03  0.12500000000E+03 0.  0.
        -11    1    3    3    0    0 -0.33563232576E+02  0.91707573493E+01 -0.82781085673E+01  0.35764793485E+02  0.51100000000E-03 0. -1.
         23    2    1    0    0    0  0.24021782548E+02 -0.11350281545E+02 -0.91411788444E+01  0.96903094857E+02  0.92740356449E+02 0.  0.
         11    1    3    3    0    0  0.57585015124E+02 -0.20521038894E+02 -0.86307027706E+00  0.61138301372E+02  0.51100000000E-03 0.  1.
         22    1    1    0    0    0 -0.24021782548E+02  0.11350281545E+02  0.91411788444E+01  0.28096905143E+02  0.00000000000E+00 0.  1.
</event>
<event>
 5    1  0.1096978E-009  0.9118800E+02  0.7818608E-02  0.1130116E+00
         25   -1    0    0    0    0  0.00000000000E+00  0.00000000000E+00  0.99999998245E-14  0.12500000000E+03  0.12500000000E+03 0.  0.
        -11    1    3    3    0    0 -0.39691977926E+02 -0.51209861599E+01  0.69309509462E+01  0.40616692286E+02  0.51100000000E-03 0.  1.
         23    2    1    0    0    0  0.10210950016E+01 -0.58200712491E+01 -0.29293346908E+02  0.95116626070E+02  0.90300368313E+02 0.  0.
         11    1    3    3    0    0  0.40713072928E+02 -0.69908508919E+00 -0.36224297855E+02  0.54499933784E+02  0.51100000000E-03 0. -1.
         22    1    1    0    0    0 -0.10210950016E+01  0.58200712491E+01  0.29293346908E+02  0.29883373930E+02  0.00000000000E+00 0. -1.
</event>
<event>
 5    1  0.1096978E-009  0.9118800E+02  0.7818608E-02  0.1130116E+00
         25   -1    0    0    0    0  0.00000000000E+00  0.00000000000E+00  0.99999998245E-14  0.12500000000E+03  0.12500000000E+03 0.  0.
        -11    1    3    3    0    0 -0.28963176404E+02 -0.27321471481E+02  0.20752647482E+02  0.44899897206E+02  0.51100000000E-03 0.  1.
         23    2    1    0    0    0  0.39750427507E+01 -0.35804482751E+02 -0.63870682832E+01  0.88413710339E+02  0.80488679854E+02 0.  0.
         11    1    3    3    0    0  0.32938219155E+02 -0.84830112699E+01 -0.27139715765E+02  0.43513813133E+02  0.51100000000E-03 0. -1.
         22    1    1    0    0    0 -0.39750427507E+01  0.35804482751E+02  0.63870682832E+01  0.36586289661E+02  0.00000000000E+00 0.  1.
</event>
<event>
 5    1  0.1096978E-009  0.9118800E+02  0.7818608E-02  0.1130116E+00
         25   -1    0    0    0    0  0.00000000000E+00  0.00000000000E+00  0.99999998245E-14  0.12500000000E+03  0.12500000000E+03 0.  0.
        -11    1    3    3    0    0  0.30839571047E+02  0.32682841146E+02  0.36613911175E+02  0.57964003826E+02  0.51100000000E-03 0. -1.
         23    2    1    0    0    0  0.13639526415E+02  0.27809405266E+02  0.59486661406E+01  0.93459766474E+02  0.87976937992E+02 0.  0.
         11    1    3    3    0    0 -0.17200044632E+02 -0.48734358807E+01 -0.30665245035E+02  0.35495762647E+02  0.51100000000E-03 0.  1.
         22    1    1    0    0    0 -0.13639526415E+02 -0.27809405266E+02 -0.59486661406E+01  0.31540233526E+02  0.00000000000E+00 0. -1.
</event>
<event>
 5    1  0.1096978E-009  0.9118800E+02  0.7818608E-02  0.1130116E+00
         25   -1    0    0    0    0  0.00000000000E+00  0.00000000000E+00  0.99999998245E-14  0.12500000000E+03  0.12500000000E+03 0.  0.
        -11    1    3    3    0    0  0.41057830770E+02 -0.16248141961E+01  0.33873906024E+02  0.53252483494E+02  0.51100000000E-03 0. -1.
         23    2    1    0    0    0  0.27354012892E+02 -0.58181514827E+01 -0.66657490260E+01  0.96250650128E+02  0.91856750062E+02 0.  0.
         11    1    3    3    0    0 -0.13703817877E+02 -0.41933372866E+01 -0.40539655050E+02  0.42998166634E+02  0.51100000000E-03 0.  1.
         22    1    1    0    0    0 -0.27354012892E+02  0.58181514827E+01  0.66657490260E+01  0.28749349872E+02  0.00000000000E+00 0. -1.
</event>
<event>
 5    1  0.1096978E-009  0.9118800E+02  0.7818608E-02  0.1130116E+00
         25   -1    0    0    0    0  0.00000000000E+00  0.00000000000E+00  0.99999998245E-14  0.12500000000E+03  0.12500000000E+03 0.  0.
        -11    1    3    3    0    0 -0.80631481633E+01 -0.25289372413E+02  0.36698160765E+02  0.45291519285E+02  0.51100000000E-03 0.  1.
         23    2    1    0    0    0  0.86780253344E+01 -0.24690994590E+02 -0.11570750489E+02  0.96384696325E+02  0.92038981313E+02 0.  0.
         11    1    3    3    0    0  0.16741173498E+02  0.59837782281E+00 -0.48268911254E+02  0.51093177040E+02  0.51100000000E-03 0. -1.
         22    1    1    0    0    0 -0.86780253344E+01  0.24690994590E+02  0.11570750489E+02  0.28615303675E+02  0.00000000000E+00 0. -1.
</event>
<event>
 5    1  0.1096978E-009  0.9118800E+02  0.7818608E-02  0.1130116E+00
         25   -1    0    0    0    0  0.00000000000E+00  0.00000000000E+00  0.99999998245E-14  0.12500000000E+03  0.12500000000E+03 0.  0.
        -11    1    3    3    0    0 -0.39944224844E+02 -0.39086490066E+01 -0.40429714751E+02  0.56968240894E+02  0.51100000000E-03 0.  1.
         23    2    1    0    0    0 -0.32315582166E+01 -0.80103058178E+01 -0.27609848211E+02  0.96070574046E+02  0.91611372173E+02 0.  0.
         11    1    3    3    0    0  0.36712666628E+02 -0.41016568112E+01  0.12819866541E+02  0.39102333151E+02  0.51100000000E-03 0. -1.
         22    1    1    0    0    0  0.32315582166E+01  0.80103058178E+01  0.27609848211E+02  0.28929425954E+02  0.00000000000E+00 0.  1.
</event>
<event>
 5    1  0.1096978E-009  0.9118800E+02  0.7818608E-02  0.1130116E+00
         25   -1    0    0    0    0  0.00000000000E+00  0.00000000000E+00  0.99999998245E-14  0.12500000000E+03  0.12500000000E+03 0.  0.
        -11    1    3    3    0    0 -0.33261587569E+02 -0.80578339560E+01 -0.11245804424E+02  0.36024019946E+02  0.51100000000E-03 0.  1.
         23    2    1    0    0    0  0.34289401068E+01  0.13409612937E+02  0.27927648506E+02  0.93830641642E+02  0.88502318673E+02 0.  0.
         11    1    3    3    0    0  0.36690527676E+02  0.21467446893E+02  0.39173452930E+02  0.57806621696E+02  0.51100000000E-03 0. -1.
         22    1    1    0    0    0 -0.34289401068E+01 -0.13409612937E+02 -0.27927648506E+02  0.31169358358E+02  0.00000000000E+00 0. -1.
</event>
<event>
 5    1  0.1096978E-009  0.9118800E+02  0.7818608E-02  0.1130116E+00
         25   -1    0    0    0    0  0.00000000000E+00  0.00000000000E+00  0.99999998245E-14  0.12500000000E+03  0.12500000000E+03 0.  0.
        -11    1    3    3    0    0  0.27187967809E+02  0.18764416373E+02 -0.12194297465E+02  0.35213488983E+02  0.51100000000E-03 0.  1.
         23    2    1    0    0    0 -0.24013519973E+02 -0.14224224490E+02 -0.15350041378E+01  0.97047648730E+02  0.92934989011E+02 0.  0.
         11    1    3    3    0    0 -0.51201487782E+02 -0.32988640863E+02  0.10659293327E+02  0.61834159747E+02  0.51100000000E-03 0. -1.
         22    1    1    0    0    0  0.24013519973E+02  0.14224224490E+02  0.15350041378E+01  0.27952351270E+02  0.00000000000E+00 0. -1.
</event>
<event>
 5    1  0.1096978E-009  0.9118800E+02  0.7818608E-02  0.1130116E+00
         25   -1    0    0    0    0  0.00000000000E+00  0.00000000000E+00  0.99999998245E-14  0.12500000000E+03  0.12500000000E+03 0.  0.
        -11    1    3    3    0    0  0.28034536839E+02  0.21857831943E+02  0.65597868799E+01  0.36148732719E+02  0.51100000000E-03 0.  1.
         23    2    1    0    0    0 -0.24061689609E+02  0.56533812832E+01 -0.16395635599E+02  0.95339546641E+02  0.90608424885E+02 0.  0.
         11    1    3    3    0    0 -0.52096226448E+02 -0.16204450660E+02 -0.22955422479E+02  0.59190813922E+02  0.51100000000E-03 0. -1.
         22    1    1    0    0    0  0.24061689609E+02 -0.56533812832E+01  0.16395635599E+02  0.29660453359E+02  0.00000000000E+00 0. -1.
</event>
<event>
 5    1  0.1096978E-009  0.9118800E+02  0.7818608E-02  0.1130116E+00
         25   -1    0    0    0    0  0.00000000000E+00  0.00000000000E+00  0.99999998245E-14  0.12500000000E+03  0.12500000000E+03 0.  0.
        -11    1    3    3    0    0  0.47087474226E+02  0.24723367631E+02 -0.10364708983E+02  0.54183967449E+02  0.51100000000E-03 0.  1.
         23    2    1    0    0    0  0.96023692455E+01  0.27582928779E+02  0.59969136906E+01  0.95184124548E+02  0.90393756073E+02 0.  0.
         11    1    3    3    0    0 -0.37485104980E+02  0.28595611484E+01  0.16361622673E+02  0.41000157099E+02  0.51100000000E-03 0. -1.
         22    1    1    0    0    0 -0.96023692455E+01 -0.27582928779E+02 -0.59969136906E+01  0.29815875452E+02  0.00000000000E+00 0.  1.
</event>
<event>
 5    1  0.1096978E-009  0.9118800E+02  0.7818608E-02  0.1130116E+00
         25   -1    0    0    0    0  0.00000000000E+00  0.00000000000E+00  0.99999998245E-14  0.12500000000E+03  0.12500000000E+03 0.  0.
        -11    1    3    3    0    0  0.12741681723E+02 -0.48544704648E+02  0.22427225841E+02  0.54971986154E+02  0.51100000000E-03 0.  1.
         23    2    1    0    0    0  0.24104642014E+02 -0.10470467314E+02  0.55587813213E+01  0.98138047312E+02  0.94390210446E+02 0.  0.
         11    1    3    3    0    0  0.11362960291E+02  0.38074237334E+02 -0.16868444520E+02  0.43166061158E+02  0.51100000000E-03 0. -1.
         22    1    1    0    0    0 -0.24104642014E+02  0.10470467314E+02 -0.55587813213E+01  0.26861952688E+02  0.00000000000E+00 0.  1.
</event>
<event>
 5    1  0.1096978E-009  0.9118800E+02  0.7818608E-02  0.1130116E+00
         25   -1    0    0    0    0  0.00000000000E+00  0.00000000000E+00  0.99999998245E-14  0.12500000000E+03  0.12500000000E+03 0.  0.
        -11    1    3    3    0    0 -0.29252115288E+02  0.17022064684E+02 -0.18560610004E+01  0.33895160386E+02  0.51100000000E-03 0. -1.
         23    2    1    0    0    0  0.79197738103E+01 -0.97403745858E+01  0.31850736306E+02  0.90764534215E+02  0.84060297131E+02 0.  0.
         11    1    3    3    0    0  0.37171889098E+02 -0.26762439270E+02  0.33706797307E+02  0.56869373829E+02  0.51100000000E-03 0.  1.
         22    1    1    0    0    0 -0.79197738103E+01  0.97403745858E+01 -0.31850736306E+02  0.34235465785E+02  0.00000000000E+00 0.  1.
</event>
<event>
 5    1  0.1096978E-009  0.9118800E+02  0.7818608E-02  0.1130116E+00
         25   -1    0    0    0    0  0.00000000000E+00  0.00000000000E+00  0.99999998245E-14  0.12500000000E+03  0.12500000000E+03 0.  0.
        -11    1    3    3    0    0 -0.40767236333E+02  0.37679244801E+02 -0.65535623702E+01  0.55898499328E+02  0.51100000000E-03 0.  1.
         23    2    1    0    0    0 -0.14189790998E+02  0.10423962229E+02 -0.21861777865E+02  0.96929615454E+02  0.92776095324E+02 0.  0.
         11    1    3    3    0    0  0.26577445336E+02 -0.27255282572E+02 -0.15308215495E+02  0.41031116127E+02  0.51100000000E-03 0. -1.
         22    1    1    0    0    0  0.14189790998E+02 -0.10423962229E+02  0.21861777865E+02  0.28070384546E+02  0.00000000000E+00 0.  1.
</event>
<event>
 5    1  0.1096978E-009  0.9118800E+02  0.7818608E-02  0.1130116E+00
         25   -1    0    0    0    0  0.00000000000E+00  0.00000000000E+00  0.99999998245E-14  0.12500000000E+03  0.12500000000E+03 0.  0.
        -11    1    3    3    0    0 -0.31041695173E+02 -0.40295732270E+02  0.35478985577E+02  0.62016862999E+02  0.51100000000E-03 0. -1.
         23    2    1    0    0    0 -0.73465526182E+01 -0.38055121747E+01  0.34860494950E+01  0.11602189890E+03  0.11567400194E+03 0.  0.
         11    1    3    3    0    0  0.23695142554E+02  0.36490220095E+02 -0.31992936082E+02  0.54005035901E+02  0.51100000000E-03 0.  1.
         22    1    1    0    0    0  0.73465526182E+01  0.38055121747E+01 -0.34860494950E+01  0.89781011001E+01  0.00000000000E+00 0. -1.
</event>
<event>
 5    1  0.1096978E-009  0.9118800E+02  0.7818608E-02  0.1130116E+00
         25   -1    0    0    0    0  0.00000000000E+00  0.00000000000E+00  0.99999998245E-14  0.12500000000E+03  0.12500000000E+03 0.  0.
        -11    1    3    3    0    0  0.32626401365E+02 -0.14665603600E+02  0.97263715629E+01  0.37069722133E+02  0.51100000000E-03 0. -1.
         23    2    1    0    0    0 -0.12801253407E+02  0.27460176114E+00 -0.25500688837E+02  0.96465238286E+02  0.92148302054E+02 0.  0.
         11    1    3    3    0    0 -0.45427654772E+02  0.14940205361E+02 -0.35227060400E+02  0.59395516153E+02  0.51100000000E-03 0.  1.
         22    1    1    0    0    0  0.12801253407E+02 -0.27460176114E+00  0.25500688837E+02  0.28534761714E+02  0.00000000000E+00 0.  1.
</event>
<event>
 5    1  0.1096978E-009  0.9118800E+02  0.7818608E-02  0.1130116E+00
         25   -1    0    0    0    0  0.00000000000E+00  0.00000000000E+00  0.99999998245E-14  0.12500000000E+03  0.12500000000E+03 0.  0.
        -11    1    3    3    0    0 -0.21756155903E+02 -0.49764716625E+02  0.57991626302E+01  0.54621311115E+02  0.51100000000E-03 0.  1.
         23    2    1    0    0    0 -0.17399243138E+02 -0.15768216943E+02 -0.17196372683E+02  0.95895265664E+02  0.91371857899E+02 0.  0.
         11    1    3    3    0    0  0.43569127651E+01  0.33996499682E+02 -0.22995535313E+02  0.41273954549E+02  0.51100000000E-03 0. -1.
         22    1    1    0    0    0  0.17399243138E+02  0.15768216943E+02  0.17196372683E+02  0.29104734336E+02  0.00000000000E+00 0.  1.
</event>
<event>
 5    1  0.1096978E-009  0.9118800E+02  0.7818608E-02  0.1130116E+00
         25   -1    0    0    0    0  0.00000000000E+00  0.00000000000E+00  0.99999998245E-14  0.12500000000E+03  0.12500000000E+03 0.  0.
        -11    1    3    3    0    0  0.28899665613E+02  0.12513866398E+01  0.39221660591E+02  0.48734949480E+02  0.51100000000E-03 0.  1.
         23    2    1    0    0    0  0.11048563068E+02  0.27805448759E+02  0.67381851100E+01  0.94330522255E+02  0.89205552315E+02 0.  0.
         11    1    3    3    0    0 -0.17851102545E+02  0.26554062119E+02 -0.32483475481E+02  0.45595572775E+02  0.51100000000E-03 0. -1.
         22    1    1    0    0    0 -0.11048563068E+02 -0.27805448759E+02 -0.67381851100E+01  0.30669477745E+02  0.00000000000E+00 0.  1.
</event>
<event>
 5    1  0.1096978E-009  0.9118800E+02  0.7818608E-02  0.1130116E+00
         25   -1    0    0    0    0  0.00000000000E+00  0.00000000000E+00  0.99999998245E-14  0.12500000000E+03  0.12500000000E+03 0.  0.
        -11    1    3    3    0    0  0.42190371591E+02 -0.11757042891E+02  0.18809698766E+02  0.47666133475E+02  0.51100000000E-03 0.  1.
         23    2    1    0    0    0  0.61170966292E+01 -0.31950541908E+02  0.16482765591E+01  0.92427422347E+02  0.86497720124E+02 0.  0.
         11    1    3    3    0    0 -0.36073274962E+02 -0.20193499016E+02 -0.17161422207E+02  0.44761288871E+02  0.51100000000E-03 0. -1.
         22    1    1    0    0    0 -0.61170966292E+01  0.31950541908E+02 -0.16482765591E+01  0.32572577653E+02  0.00000000000E+00 0.  1.
</event>
<event>
 5    1  0.1096978E-009  0.9118800E+02  0.7818608E-02  0.1130116E+00
         25   -1    0    0    0    0  0.00000000000E+00  0.00000000000E+00  0.99999998245E-14  0.12500000000E+03  0.12500000000E+03 0.  0.
        -11    1    3    3    0    0 -0.11456031548E+02  0.17598476057E+02 -0.33313561710E+02  0.39379441495E+02  0.51100000000E-03 0.  1.
         23    2    1    0    0    0  0.38638881982E+01  0.18318893528E+02  0.21612232341E+02  0.96406293020E+02  0.92068307549E+02 0.  0.
         11    1    3    3    0    0  0.15319919746E+02  0.72041747118E+00  0.54925794052E+02  0.57026851525E+02  0.51100000000E-03 0. -1.
         22    1    1    0    0    0 -0.38638881982E+01 -0.18318893528E+02 -0.21612232341E+02  0.28593706980E+02  0.00000000000E+00 0. -1.
</event>
<event>
 5    1  0.1096978E-009  0.9118800E+02  0.7818608E-02  0.1130116E+00
         25   -1    0    0    0    0  0.00000000000E+00  0.00000000000E+00  0.99999998245E-14  0.12500000000E+03  0.12500000000E+03 0.  0.
        -11    1    3    3    0    0  0.40127895303E+02  0.27115909822E+02  0.27934385265E+01  0.48511069314E+02  0.51100000000E-03 0.  1.
         23    2    1    0    0    0 -0.21075531266E+01  0.24320026165E+02 -0.17014447283E+02  0.95244380881E+02  0.90477042503E+02 0.  0.
         11    1    3    3    0    0 -0.42235448430E+02 -0.27958836574E+01 -0.19807885809E+02  0.46733311566E+02  0.51100000000E-03 0. -1.
         22    1    1    0    0    0  0.21075531266E+01 -0.24320026165E+02  0.17014447283E+02  0.29755619119E+02  0.00000000000E+00 0. -1.
</event>
<event>
 5    1  0.1096978E-009  0.9118800E+02  0.7818608E-02  0.1130116E+00
         25   -1    0    0    0    0  0.00000000000E+00  0.00000000000E+00  0.99999998245E-14  0.12500000000E+03  0.12500000000E+03 0.  0.
        -11    1    3    3    0    0  0.32594131225E+02 -0.90842367396E+01  0.18233024467E+02  0.38436231981E+02  0.51100000000E-03 0. -1.
         23    2    1    0    0    0 -0.59069740638E+01 -0.12949893936E+02 -0.24860768674E+02  0.96353012120E+02  0.91995940291E+02 0.  0.
         11    1    3    3    0    0 -0.38501105289E+02 -0.38656571965E+01 -0.43093793141E+02  0.57916780138E+02  0.51100000000E-03 0.  1.
         22    1    1    0    0    0  0.59069740638E+01  0.12949893936E+02  0.24860768674E+02  0.28646987880E+02  0.00000000000E+00 0.  1.
</event>
<event>
 5    1  0.1096978E-009  0.9118800E+02  0.7818608E-02  0.1130116E+00
         25   -1    0    0    0    0  0.00000000000E+00  0.00000000000E+00  0.99999998245E-14  0.12500000000E+03  0.12500000000E+03 0.  0.
        -11    1    3    3    0    0  0.20961714353E+02 -0.19683536935E+02  0.33639461819E+02  0.44254361215E+02  0.51100000000E-03 0. -1.
         23    2    1    0    0    0 -0.24648963062E+02 -0.10015823067E+02  0.14920396886E+02  0.94495798077E+02  0.89436846541E+02 0.  0.
         11    1    3    3    0    0 -0.45610677415E+02  0.96677138681E+01 -0.18719064933E+02  0.50241436861E+02  0.51100000000E-03 0.  1.
         22    1    1    0    0    0  0.24648963062E+02  0.10015823067E+02 -0.14920396886E+02  0.30504201923E+02  0.00000000000E+00 0.  1.
</event>
<event>
 5    1  0.1096978E-009  0.9118800E+02  0.7818608E-02  0.1130116E+00
         25   -1    0    0    0    0  0.00000000000E+00  0.00000000000E+00  0.99999998245E-14  0.12500000000E+03  0.12500000000E+03 0.  0.
        -11    1    3    3    0    0 -0.82615986411E+01  0.46459991333E+02  0.91161614643E+01  0.48061306753E+02  0.51100000000E-03 0.  1.
         23    2    1    0    0    0 -0.26654502162E+02  0.12044586958E+01 -0.22725350638E+01  0.98221694940E+02  0.94500919229E+02 0.  0.
         11    1    3    3    0    0 -0.18392903521E+02 -0.45255532637E+02 -0.11388696528E+02  0.50160388187E+02  0.51100000000E-03 0. -1.
         22    1    1    0    0    0  0.26654502162E+02 -0.12044586958E+01  0.22725350638E+01  0.26778305060E+02  0.00000000000E+00 0.  1.
</event>
<event>
 5    1  0.1096978E-009  0.9118800E+02  0.7818608E-02  0.1130116E+00
         25   -1    0    0    0    0  0.00000000000E+00  0.00000000000E+00  0.99999998245E-14  0.12500000000E+03  0.12500000000E+03 0.  0.
        -11    1    3    3    0    0 -0.79979091764E+00  0.31110193535E+02  0.38770379317E+02  0.49715451521E+02  0.51100000000E-03 0.  1.
         23    2    1    0    0    0 -0.23069262385E+02  0.17937403544E+02  0.67087721494E+00  0.95770025845E+02  0.91200364370E+02 0.  0.
         11    1    3    3    0    0 -0.22269471467E+02 -0.13172789991E+02 -0.38099502102E+02  0.46054574325E+02  0.51100000000E-03 0. -1.
         22    1    1    0    0    0  0.23069262385E+02 -0.17937403544E+02 -0.67087721494E+00  0.29229974155E+02  0.00000000000E+00 0. -1.
</event>
<event>
 5    1  0.1096978E-009  0.9118800E+02  0.7818608E-02  0.1130116E+00
         25   -1    0    0    0    0  0.00000000000E+00  0.00000000000E+00  0.99999998245E-14  0.12500000000E+03  0.12500000000E+03 0.  0.
        -11    1    3    3    0    0 -0.11498436220E+02  0.69382475915E+00 -0.34892477249E+02  0.36744800954E+02  0.51100000000E-03 0.  1.
         23    2    1    0    0    0 -0.42031436392E+01 -0.24513120794E+02  0.16985798279E+02  0.94882283442E+02  0.89975390304E+02 0.  0.
         11    1    3    3    0    0  0.72952925810E+01 -0.25206945553E+02  0.51878275528E+02  0.58137482488E+02  0.51100000000E-03 0. -1.
         22    1    1    0    0    0  0.42031436392E+01  0.24513120794E+02 -0.16985798279E+02  0.30117716558E+02  0.00000000000E+00 0. -1.
</event>
<event>
 5    1  0.1096978E-009  0.9118800E+02  0.7818608E-02  0.1130116E+00
         25   -1    0    0    0    0  0.00000000000E+00  0.00000000000E+00  0.99999998245E-14  0.12500000000E+03  0.12500000000E+03 0.  0.
        -11    1    3    3    0    0  0.44097577513E+02 -0.23370099647E+02 -0.25898084224E+02  0.56226938977E+02  0.51100000000E-03 0. -1.
         23    2    1    0    0    0  0.18058950249E+02  0.61772176697E+01 -0.22109077696E+02  0.95792209621E+02  0.91230764577E+02 0.  0.
         11    1    3    3    0    0 -0.26038627264E+02  0.29547317316E+02  0.37890065280E+01  0.39565270644E+02  0.51100000000E-03 0.  1.
         22    1    1    0    0    0 -0.18058950249E+02 -0.61772176697E+01  0.22109077696E+02  0.29207790379E+02  0.00000000000E+00 0. -1.
</event>
<event>
 5    1  0.1096978E-009  0.9118800E+02  0.7818608E-02  0.1130116E+00
         25   -1    0    0    0    0  0.00000000000E+00  0.00000000000E+00  0.99999998245E-14  0.12500000000E+03  0.12500000000E+03 0.  0.
        -11    1    3    3    0    0  0.14459084518E+02 -0.14114710576E+02  0.26781579403E+02  0.33549115865E+02  0.51100000000E-03 0. -1.
         23    2    1    0    0    0 -0.14480258352E+02  0.21414881739E+02 -0.14615752697E+02  0.95303278485E+02  0.90558376870E+02 0.  0.
         11    1    3    3    0    0 -0.28939342870E+02  0.35529592314E+02 -0.41397332100E+02  0.61754162621E+02  0.51100000000E-03 0.  1.
         22    1    1    0    0    0  0.14480258352E+02 -0.21414881739E+02  0.14615752697E+02  0.29696721515E+02  0.00000000000E+00 0.  1.
</event>
<event>
 5    1  0.1096978E-009  0.9118800E+02  0.7818608E-02  0.1130116E+00
         25   -1    0    0    0    0  0.00000000000E+00  0.00000000000E+00  0.99999998245E-14  0.12500000000E+03  0.12500000000E+03 0.  0.
        -11    1    3    3    0    0 -0.35024875763E+02 -0.20246799279E+02  0.39571013256E+02  0.56590987742E+02  0.51100000000E-03 0. -1.
         23    2    1    0    0    0 -0.29646811106E+02 -0.21558204875E+01  0.66472106698E+01  0.94540742287E+02  0.89499640065E+02 0.  0.
         11    1    3    3    0    0  0.53780646564E+01  0.18090978792E+02 -0.32923802586E+02  0.37949754545E+02  0.51100000000E-03 0.  1.
         22    1    1    0    0    0  0.29646811106E+02  0.21558204875E+01 -0.66472106698E+01  0.30459257713E+02  0.00000000000E+00 0. -1.
</event>
<event>
 5    1  0.1096978E-009  0.9118800E+02  0.7818608E-02  0.1130116E+00
         25   -1    0    0    0    0  0.00000000000E+00  0.00000000000E+00  0.99999998245E-14  0.12500000000E+03  0.12500000000E+03 0.  0.
        -11    1    3    3    0    0  0.32404013425E+02  0.18784541405E+02 -0.88046897825E+00  0.37465374784E+02  0.51100000000E-03 0. -1.
         23    2    1    0    0    0 -0.12205248589E+02 -0.94985154298E+01  0.24469071956E+02  0.96053059387E+02  0.91587471014E+02 0.  0.
         11    1    3    3    0    0 -0.44609262014E+02 -0.28283056834E+02  0.25349540934E+02  0.58587684603E+02  0.51100000000E-03 0.  1.
         22    1    1    0    0    0  0.12205248589E+02  0.94985154298E+01 -0.24469071956E+02  0.28946940613E+02  0.00000000000E+00 0.  1.
</event>
<event>
 5    1  0.1096978E-009  0.9118800E+02  0.7818608E-02  0.1130116E+00
         25   -1    0    0    0    0  0.00000000000E+00  0.00000000000E+00  0.99999998245E-14  0.12500000000E+03  0.12500000000E+03 0.  0.
        -11    1    3    3    0    0  0.11813631058E+02 -0.34228325201E+02 -0.23272620856E+02  0.43043640721E+02  0.51100000000E-03 0.  1.
         23    2    1    0    0    0  0.12779924140E+02 -0.13924109021E+02  0.23970782439E+02  0.94474507641E+02  0.89407085347E+02 0.  0.
         11    1    3    3    0    0  0.96629308290E+00  0.20304216180E+02  0.47243403294E+02  0.51430866919E+02  0.51100000000E-03 0. -1.
         22    1    1    0    0    0 -0.12779924140E+02  0.13924109021E+02 -0.23970782439E+02  0.30525492359E+02  0.00000000000E+00 0. -1.
</event>
<event>
 5    1  0.1096978E-009  0.9118800E+02  0.7818608E-02  0.1130116E+00
         25   -1    0    0    0    0  0.00000000000E+00  0.00000000000E+00  0.99999998245E-14  0.12500000000E+03  0.12500000000E+03 0.  0.
        -11    1    3    3    0    0 -0.18092160692E+02  0.34487959638E+02 -0.69967833810E+01  0.39568934992E+02  0.51100000000E-03 0.  1.
         23    2    1    0    0    0 -0.23291977600E+02 -0.17030675767E+02  0.10604206872E+02  0.94258995771E+02  0.89105268884E+02 0.  0.
         11    1    3    3    0    0 -0.51998169077E+01 -0.51518635405E+02  0.17600990253E+02  0.54690060779E+02  0.51100000000E-03 0. -1.
         22    1    1    0    0    0  0.23291977600E+02  0.17030675767E+02 -0.10604206872E+02  0.30741004229E+02  0.00000000000E+00 0. -1.
</event>
<event>
 5    1  0.1096978E-009  0.9118800E+02  0.7818608E-02  0.1130116E+00
         25   -1    0    0    0    0  0.00000000000E+00  0.00000000000E+00  0.99999998245E-14  0.12500000000E+03  0.12500000000E+03 0.  0.
        -11    1    3    3    0    0  0.49259173002E+02 -0.56403304875E+01 -0.12508325455E+02  0.51134505559E+02  0.51100000000E-03 0. -1.
         23    2    1    0    0    0  0.85561206223E+01 -0.23921589548E+02 -0.14404715379E+02  0.95794769787E+02  0.91234272326E+02 0.  0.
         11    1    3    3    0    0 -0.40703052380E+02 -0.18281259061E+02 -0.18963899247E+01  0.44660264228E+02  0.51100000000E-03 0.  1.
         22    1    1    0    0    0 -0.85561206223E+01  0.23921589548E+02  0.14404715379E+02  0.29205230213E+02  0.00000000000E+00 0. -1.
</event>
<event>
 5    1  0.1096978E-009  0.9118800E+02  0.7818608E-02  0.1130116E+00
         25   -1    0    0    0    0  0.00000000000E+00  0.00000000000E+00  0.99999998245E-14  0.12500000000E+03  0.12500000000E+03 0.  0.
        -11    1    3    3    0    0  0.16584906082E+02  0.23395556826E+01  0.23845867162E+02  0.29140315913E+02  0.51100000000E-03 0. -1.
         23    2    1    0    0    0 -0.25330606032E+02 -0.11109079448E+02 -0.19686205594E+02  0.91050067175E+02  0.84483825634E+02 0.  0.
         11    1    3    3    0    0 -0.41915512114E+02 -0.13448635130E+02 -0.43532072756E+02  0.61909751262E+02  0.51100000000E-03 0.  1.
         22    1    1    0    0    0  0.25330606032E+02  0.11109079448E+02  0.19686205594E+02  0.33949932825E+02  0.00000000000E+00 0.  1.
</event>
<event>
 5    1  0.1096978E-009  0.9118800E+02  0.7818608E-02  0.1130116E+00
         25   -1    0    0    0    0  0.00000000000E+00  0.00000000000E+00  0.99999998245E-14  0.12500000000E+03  0.12500000000E+03 0.  0.
        -11    1    3    3    0    0  0.29076445568E+02 -0.19028203995E+02  0.12360575086E+02  0.36882191513E+02  0.51100000000E-03 0.  1.
         23    2    1    0    0    0 -0.89301587452E+01  0.26055457541E+02 -0.13573526737E+01  0.97423252383E+02  0.93438820068E+02 0.  0.
         11    1    3    3    0    0 -0.38006604313E+02  0.45083661536E+02 -0.13717927759E+02  0.60541060869E+02  0.51100000000E-03 0. -1.
         22    1    1    0    0    0  0.89301587452E+01 -0.26055457541E+02  0.13573526737E+01  0.27576747617E+02  0.00000000000E+00 0. -1.
</event>
<event>
 5    1  0.1096978E-009  0.9118800E+02  0.7818608E-02  0.1130116E+00
         25   -1    0    0    0    0  0.00000000000E+00  0.00000000000E+00  0.99999998245E-14  0.12500000000E+03  0.12500000000E+03 0.  0.
        -11    1    3    3    0    0 -0.37431780019E+02  0.47070210267E+02  0.45025595354E+01  0.60307676896E+02  0.51100000000E-03 0.  1.
         23    2    1    0    0    0 -0.18961700947E+02  0.19404631695E+02 -0.92962067298E+01  0.96320646911E+02  0.91951953366E+02 0.  0.
         11    1    3    3    0    0  0.18470079071E+02 -0.27665578572E+02 -0.13798766265E+02  0.36012970016E+02  0.51100000000E-03 0. -1.
         22    1    1    0    0    0  0.18961700947E+02 -0.19404631695E+02  0.92962067298E+01  0.28679353089E+02  0.00000000000E+00 0.  1.
</event>
<event>
 5    1  0.1096978E-009  0.9118800E+02  0.7818608E-02  0.1130116E+00
         25   -1    0    0    0    0  0.00000000000E+00  0.00000000000E+00  0.99999998245E-14  0.12500000000E+03  0.12500000000E+03 0.  0.
        -11    1    3    3    0    0  0.15440328349E+02  0.26935588299E+02  0.41015115459E+02  0.51440930716E+02  0.51100000000E-03 0.  1.
         23    2    1    0    0    0 -0.10792700373E+02 -0.63126401703E+01  0.25599206769E+02  0.96510507297E+02  0.92209689428E+02 0.  0.
         11    1    3    3    0    0 -0.26233028722E+02 -0.33248228470E+02 -0.15415908690E+02  0.45069576582E+02  0.51100000000E-03 0. -1.
         22    1    1    0    0    0  0.10792700373E+02  0.63126401703E+01 -0.25599206769E+02  0.28489492703E+02  0.00000000000E+00 0.  1.
</event>
<event>
 5    1  0.1096978E-009  0.9118800E+02  0.7818608E-02  0.1130116E+00
         25   -1    0    0    0    0  0.00000000000E+00  0.00000000000E+00  0.99999998245E-14  0.12500000000E+03  0.12500000000E+03 0.  0.
        -11    1    3    3    0    0  0.39861925417E+02 -0.58603955728E+01 -0.40941782352E+02  0.57441682398E+02  0.51100000000E-03 0.  1.
         23    2    1    0    0    0  0.13060132597E+02 -0.18350434135E+02 -0.26095097319E+02  0.90528858439E+02  0.83709107089E+02 0.  0.
         11    1    3    3    0    0 -0.26801792820E+02 -0.12490038563E+02  0.14846685032E+02  0.33087176041E+02  0.51100000000E-03 0. -1.
         22    1    1    0    0    0 -0.13060132597E+02  0.18350434135E+02  0.26095097319E+02  0.34471141561E+02  0.00000000000E+00 0.  1.
</event>
<event>
 5    1  0.1096978E-009  0.9118800E+02  0.7818608E-02  0.1130116E+00
         25   -1    0    0    0    0  0.00000000000E+00  0.00000000000E+00  0.99999998245E-14  0.12500000000E+03  0.12500000000E+03 0.  0.
        -11    1    3    3    0    0 -0.10399452996E+02 -0.32911510476E+02  0.13611485980E+02  0.37102408214E+02  0.51100000000E-03 0. -1.
         23    2    1    0    0    0  0.19159704840E+02  0.18814845155E+02  0.31341948509E+00  0.98145001963E+02  0.94399419971E+02 0.  0.
         11    1    3    3    0    0  0.29559157836E+02  0.51726355632E+02 -0.13298066495E+02  0.61042593749E+02  0.51100000000E-03 0.  1.
         22    1    1    0    0    0 -0.19159704840E+02 -0.18814845155E+02 -0.31341948509E+00  0.26854998037E+02  0.00000000000E+00 0.  1.
</event>
<event>
 5    1  0.1096978E-009  0.9118800E+02  0.7818608E-02  0.1130116E+00
         25   -1    0    0    0    0  0.00000000000E+00  0.00000000000E+00  0.99999998245E-14  0.12500000000E+03  0.12500000000E+03 0.  0.
        -11    1    3    3    0    0 -0.35864231132E+01  0.22799459119E+02 -0.50463247338E+02  0.55490693806E+02  0.51100000000E-03 0. -1.
         23    2    1    0    0    0 -0.17859237004E+02 -0.23398763684E+01 -0.26054327915E+02  0.93325793287E+02  0.87786378908E+02 0.  0.
         11    1    3    3    0    0 -0.14272813891E+02 -0.25139335487E+02  0.24408919423E+02  0.37835099482E+02  0.51100000000E-03 0.  1.
         22    1    1    0    0    0  0.17859237004E+02  0.23398763684E+01  0.26054327915E+02  0.31674206713E+02  0.00000000000E+00 0. -1.
</event>
<event>
 5    1  0.1096978E-009  0.9118800E+02  0.7818608E-02  0.1130116E+00
         25   -1    0    0    0    0  0.00000000000E+00  0.00000000000E+00  0.99999998245E-14  0.12500000000E+03  0.12500000000E+03 0.  0.
        -11    1    3    3    0    0 -0.77916742835E+01  0.29226229435E+02  0.45171777122E+02  0.54363334369E+02  0.51100000000E-03 0. -1.
         23    2    1    0    0    0  0.61084164849E+01 -0.70171354497E+01  0.25448749731E+02  0.97904026041E+02  0.94079788001E+02 0.  0.
         11    1    3    3    0    0  0.13900090768E+02 -0.36243364885E+02 -0.19723027391E+02  0.43540691672E+02  0.51100000000E-03 0.  1.
         22    1    1    0    0    0 -0.61084164849E+01  0.70171354497E+01 -0.25448749731E+02  0.27095973959E+02  0.00000000000E+00 0.  1.
</event>
<event>
 5    1  0.1096978E-009  0.9118800E+02  0.7818608E-02  0.1130116E+00
         25   -1    0    0    0    0  0.00000000000E+00  0.00000000000E+00  0.99999998245E-14  0.12500000000E+03  0.12500000000E+03 0.  0.
        -11    1    3    3    0    0  0.24489849927E+02 -0.29602209452E+01  0.31827299107E+02  0.40267761624E+02  0.51100000000E-03 0.  1.
         23    2    1    0    0    0  0.10320555490E+01  0.23407834399E+02 -0.13689082921E+02  0.97863625129E+02  0.94026093625E+02 0.  0.
         11    1    3    3    0    0 -0.23457794378E+02  0.26368055344E+02 -0.45516382028E+02  0.57595863505E+02  0.51100000000E-03 0. -1.
         22    1    1    0    0    0 -0.10320555490E+01 -0.23407834399E+02  0.13689082921E+02  0.27136374871E+02  0.00000000000E+00 0. -1.
</event>
<event>
 5    1  0.1096978E-009  0.9118800E+02  0.7818608E-02  0.1130116E+00
         25   -1    0    0    0    0  0.00000000000E+00  0.00000000000E+00  0.99999998245E-14  0.12500000000E+03  0.12500000000E+03 0.  0.
        -11    1    3    3    0    0  0.11227773578E+02 -0.56504488546E+02  0.12048414276E+02  0.58855623454E+02  0.51100000000E-03 0.  1.
         23    2    1    0    0    0  0.11318965419E+02 -0.18810088700E+02  0.17477797386E+02  0.96939140845E+02  0.92788928280E+02 0.  0.
         11    1    3    3    0    0  0.91191840978E-01  0.37694399846E+02  0.54293831099E+01  0.38083517391E+02  0.51100000000E-03 0. -1.
         22    1    1    0    0    0 -0.11318965419E+02  0.18810088700E+02 -0.17477797386E+02  0.28060859155E+02  0.00000000000E+00 0.  1.
</event>
<event>
 5    1  0.1096978E-009  0.9118800E+02  0.7818608E-02  0.1130116E+00
         25   -1    0    0    0    0  0.00000000000E+00  0.00000000000E+00  0.99999998245E-14  0.12500000000E+03  0.12500000000E+03 0.  0.
        -11    1    3    3    0    0 -0.35188065473E+02 -0.12387982200E+02  0.33479452239E+02  0.50125201019E+02  0.51100000000E-03 0.  1.
         23    2    1    0    0    0  0.95948152422E+01 -0.26143252171E+01  0.26759771594E+02  0.96452135778E+02  0.92130526670E+02 0.  0.
         11    1    3    3    0    0  0.44782880715E+02  0.97736569833E+01 -0.67196806444E+01  0.46326934759E+02  0.51100000000E-03 0. -1.
         22    1    1    0    0    0 -0.95948152422E+01  0.26143252171E+01 -0.26759771594E+02  0.28547864222E+02  0.00000000000E+00 0.  1.
</event>
<event>
 5    1  0.1096978E-009  0.9118800E+02  0.7818608E-02  0.1130116E+00
         25   -1    0    0    0    0  0.00000000000E+00  0.00000000000E+00  0.99999998245E-14  0.12500000000E+03  0.12500000000E+03 0.  0.
        -11    1    3    3    0    0  0.31753402433E+02 -0.20745043437E+02 -0.47438695825E+02  0.60737675747E+02  0.51100000000E-03 0.  1.
         23    2    1    0    0    0  0.13545977895E+02 -0.19676036608E+02 -0.19209222622E+02  0.94346547218E+02  0.89228004597E+02 0.  0.
         11    1    3    3    0    0 -0.18207424539E+02  0.10690068282E+01  0.28229473203E+02  0.33608871470E+02  0.51100000000E-03 0. -1.
         22    1    1    0    0    0 -0.13545977895E+02  0.19676036608E+02  0.19209222622E+02  0.30653452782E+02  0.00000000000E+00 0.  1.
</event>
<event>
 5    1  0.1096978E-009  0.9118800E+02  0.7818608E-02  0.1130116E+00
         25   -1    0    0    0    0  0.00000000000E+00  0.00000000000E+00  0.99999998245E-14  0.12500000000E+03  0.12500000000E+03 0.  0.
        -11    1    3    3    0    0 -0.37078342799E+02 -0.31079136763E+01  0.14267348791E+02  0.39849967051E+02  0.51100000000E-03 0. -1.
         23    2    1    0    0    0  0.35719901471E+01 -0.20649299655E+02 -0.20150366053E+02  0.95927849375E+02  0.91416422725E+02 0.  0.
         11    1    3    3    0    0  0.40650332946E+02 -0.17541385979E+02 -0.34417714844E+02  0.56077882325E+02  0.51100000000E-03 0.  1.
         22    1    1    0    0    0 -0.35719901471E+01  0.20649299655E+02  0.20150366053E+02  0.29072150625E+02  0.00000000000E+00 0.  1.
</event>
<event>
 5    1  0.1096978E-009  0.9118800E+02  0.7818608E-02  0.1130116E+00
         25   -1    0    0    0    0  0.00000000000E+00  0.00000000000E+00  0.99999998245E-14  0.12500000000E+03  0.12500000000E+03 0.  0.
        -11    1    3    3    0    0 -0.20104219885E+02  0.27270967704E+02 -0.65198888641E+01  0.34502091064E+02  0.51100000000E-03 0. -1.
         23    2    1    0    0    0  0.30700378077E+02  0.20548626183E+02 -0.12274469065E+02  0.86071580524E+02  0.76765194789E+02 0.  0.
         11    1    3    3    0    0  0.50804597963E+02 -0.67223415207E+01 -0.57545802006E+01  0.51569489460E+02  0.51100000000E-03 0.  1.
         22    1    1    0    0    0 -0.30700378077E+02 -0.20548626183E+02  0.12274469065E+02  0.38928419476E+02  0.00000000000E+00 0.  1.
</event>
<event>
 5    1  0.1096978E-009  0.9118800E+02  0.7818608E-02  0.1130116E+00
         25   -1    0    0    0    0  0.00000000000E+00  0.00000000000E+00  0.99999998245E-14  0.12500000000E+03  0.12500000000E+03 0.  0.
        -11    1    3    3    0    0 -0.80650849756E+01  0.51103228852E+01  0.35846930554E+02  0.37096676752E+02  0.51100000000E-03 0.  1.
         23    2    1    0    0    0  0.53003513728E+01  0.24160166257E+02 -0.17098604511E+02  0.94930586397E+02  0.90042471085E+02 0.  0.
         11    1    3    3    0    0  0.13365436348E+02  0.19049843372E+02 -0.52945535064E+02  0.57833909645E+02  0.51100000000E-03 0. -1.
         22    1    1    0    0    0 -0.53003513728E+01 -0.24160166257E+02  0.17098604511E+02  0.30069413603E+02  0.00000000000E+00 0. -1.
</event>
<event>
 5    1  0.1096978E-009  0.9118800E+02  0.7818608E-02  0.1130116E+00
         25   -1    0    0    0    0  0.00000000000E+00  0.00000000000E+00  0.99999998245E-14  0.12500000000E+03  0.12500000000E+03 0.  0.
        -11    1    3    3    0    0 -0.43345325167E+02 -0.17379424288E+02 -0.35194816147E+02  0.58476804686E+02  0.51100000000E-03 0.  1.
         23    2    1    0    0    0 -0.76879264972E+01 -0.16113261862E+02 -0.22341752784E+02  0.96401130457E+02  0.92061298135E+02 0.  0.
         11    1    3    3    0    0  0.35657398669E+02  0.12661624253E+01  0.12853063363E+02  0.37924325772E+02  0.51100000000E-03 0. -1.
         22    1    1    0    0    0  0.76879264972E+01  0.16113261862E+02  0.22341752784E+02  0.28598869543E+02  0.00000000000E+00 0.  1.
</event>
<event>
 5    1  0.1096978E-009  0.9118800E+02  0.7818608E-02  0.1130116E+00
         25   -1    0    0    0    0  0.00000000000E+00  0.00000000000E+00  0.99999998245E-14  0.12500000000E+03  0.12500000000E+03 0.  0.
        -11    1    3    3    0    0 -0.14727215133E+02 -0.41746838107E+02  0.42526887484E+02  0.61385873920E+02  0.51100000000E-03 0.  1.
         23    2    1    0    0    0  0.53883646482E-01 -0.23142713341E+02  0.16830829828E+02  0.96384184147E+02  0.92038285711E+02 0.  0.
         11    1    3    3    0    0  0.14781098779E+02  0.18604124766E+02 -0.25696057656E+02  0.34998310227E+02  0.51100000000E-03 0. -1.
         22    1    1    0    0    0 -0.53883646482E-01  0.23142713341E+02 -0.16830829828E+02  0.28615815853E+02  0.00000000000E+00 0.  1.
</event>
<event>
 5    1  0.1096978E-009  0.9118800E+02  0.7818608E-02  0.1130116E+00
         25   -1    0    0    0    0  0.00000000000E+00  0.00000000000E+00  0.99999998245E-14  0.12500000000E+03  0.12500000000E+03 0.  0.
        -11    1    3    3    0    0  0.19405508353E+02 -0.44611976724E+02 -0.37616897175E+02  0.61496611086E+02  0.51100000000E-03 0. -1.
         23    2    1    0    0    0  0.14907912978E+02 -0.25685020137E+02 -0.13790098747E+02  0.92256558638E+02  0.86250447300E+02 0.  0.
         11    1    3    3    0    0 -0.44975953757E+01  0.18926956587E+02  0.23826798429E+02  0.30759947552E+02  0.51100000000E-03 0.  1.
         22    1    1    0    0    0 -0.14907912978E+02  0.25685020137E+02  0.13790098747E+02  0.32743441362E+02  0.00000000000E+00 0. -1.
</event>
<event>
 5    1  0.1096978E-009  0.9118800E+02  0.7818608E-02  0.1130116E+00
         25   -1    0    0    0    0  0.00000000000E+00  0.00000000000E+00  0.99999998245E-14  0.12500000000E+03  0.12500000000E+03 0.  0.
        -11    1    3    3    0    0 -0.48449657726E+02  0.69467129290E+01 -0.38736713384E+02  0.62419220744E+02  0.51100000000E-03 0.  1.
         23    2    1    0    0    0 -0.25255909566E+02  0.30912015097E+01 -0.17347282595E+02  0.94204794071E+02  0.89029200366E+02 0.  0.
         11    1    3    3    0    0  0.23193748160E+02 -0.38555114193E+01  0.21389430789E+02  0.31785573327E+02  0.51100000000E-03 0. -1.
         22    1    1    0    0    0  0.25255909566E+02 -0.30912015097E+01  0.17347282595E+02  0.30795205929E+02  0.00000000000E+00 0.  1.
</event>
<event>
 5    1  0.1096978E-009  0.9118800E+02  0.7818608E-02  0.1130116E+00
         25   -1    0    0    0    0  0.00000000000E+00  0.00000000000E+00  0.99999998245E-14  0.12500000000E+03  0.12500000000E+03 0.  0.
        -11    1    3    3    0    0  0.32621144084E+02 -0.23790354749E+01 -0.28446281836E+02  0.43347315969E+02  0.51100000000E-03 0.  1.
         23    2    1    0    0    0 -0.16086513131E+01  0.17208541337E+01 -0.43835910552E+02  0.81100841103E+02  0.68192450283E+02 0.  0.
         11    1    3    3    0    0 -0.34229795397E+02  0.40998896086E+01 -0.15389628716E+02  0.37753525134E+02  0.51100000000E-03 0. -1.
         22    1    1    0    0    0  0.16086513131E+01 -0.17208541337E+01  0.43835910552E+02  0.43899158897E+02  0.00000000000E+00 0.  1.
</event>
<event>
 5    1  0.1096978E-009  0.9118800E+02  0.7818608E-02  0.1130116E+00
         25   -1    0    0    0    0  0.00000000000E+00  0.00000000000E+00  0.99999998245E-14  0.12500000000E+03  0.12500000000E+03 0.  0.
        -11    1    3    3    0    0  0.89109545198E+01 -0.48371662391E+01  0.60796906602E+02  0.61636573074E+02  0.51100000000E-03 0. -1.
         23    2    1    0    0    0  0.29295226964E+01  0.49688448627E+01  0.28680619800E+02  0.95745094863E+02  0.91166187349E+02 0.  0.
         11    1    3    3    0    0 -0.59814318234E+01  0.98060111017E+01 -0.32116286802E+02  0.34108521789E+02  0.51100000000E-03 0.  1.
         22    1    1    0    0    0 -0.29295226964E+01 -0.49688448627E+01 -0.28680619800E+02  0.29254905137E+02  0.00000000000E+00 0. -1.
</event>
<event>
 5    1  0.1096978E-009  0.9118800E+02  0.7818608E-02  0.1130116E+00
         25   -1    0    0    0    0  0.00000000000E+00  0.00000000000E+00  0.99999998245E-14  0.12500000000E+03  0.12500000000E+03 0.  0.
        -11    1    3    3    0    0  0.13578490416E+02 -0.30989186677E+02 -0.41746601763E+01  0.34090070119E+02  0.51100000000E-03 0.  1.
         23    2    1    0    0    0 -0.36154946345E+01  0.28574890489E+02 -0.20998302241E+01  0.96120847400E+02  0.91679942463E+02 0.  0.
         11    1    3    3    0    0 -0.17193985050E+02  0.59564077166E+02  0.20748299522E+01  0.62030777281E+02  0.51100000000E-03 0. -1.
         22    1    1    0    0    0  0.36154946345E+01 -0.28574890489E+02  0.20998302241E+01  0.28879152600E+02  0.00000000000E+00 0. -1.
</event>
<event>
 5    1  0.1096978E-009  0.9118800E+02  0.7818608E-02  0.1130116E+00
         25   -1    0    0    0    0  0.00000000000E+00  0.00000000000E+00  0.99999998245E-14  0.12500000000E+03  0.12500000000E+03 0.  0.
        -11    1    3    3    0    0 -0.40876564742E+02 -0.28700720875E+02 -0.24715208534E+02  0.55726712239E+02  0.51100000000E-03 0. -1.
         23    2    1    0    0    0 -0.91933965278E+01 -0.28220843855E+02 -0.10047442040E+01  0.95302456693E+02  0.90557242522E+02 0.  0.
         11    1    3    3    0    0  0.31683168214E+02  0.47987702080E+00  0.23710464330E+02  0.39575744453E+02  0.51100000000E-03 0.  1.
         22    1    1    0    0    0  0.91933965278E+01  0.28220843855E+02  0.10047442040E+01  0.29697543307E+02  0.00000000000E+00 0. -1.
</event>
<event>
 5    1  0.1096978E-009  0.9118800E+02  0.7818608E-02  0.1130116E+00
         25   -1    0    0    0    0  0.00000000000E+00  0.00000000000E+00  0.99999998245E-14  0.12500000000E+03  0.12500000000E+03 0.  0.
        -11    1    3    3    0    0  0.18387483767E+01  0.33814577303E+02  0.44584426310E+02  0.55987299483E+02  0.51100000000E-03 0. -1.
         23    2    1    0    0    0  0.20602576118E+02  0.13916926554E+02  0.16674639229E+02  0.95063557646E+02  0.90226877434E+02 0.  0.
         11    1    3    3    0    0  0.18763827741E+02 -0.19897650749E+02 -0.27909787082E+02  0.39076258163E+02  0.51100000000E-03 0.  1.
         22    1    1    0    0    0 -0.20602576118E+02 -0.13916926554E+02 -0.16674639229E+02  0.29936442354E+02  0.00000000000E+00 0. -1.
</event>
<event>
 5    1  0.1096978E-009  0.9118800E+02  0.7818608E-02  0.1130116E+00
         25   -1    0    0    0    0  0.00000000000E+00  0.00000000000E+00  0.99999998245E-14  0.12500000000E+03  0.12500000000E+03 0.  0.
        -11    1    3    3    0    0 -0.11270638670E+01  0.34435807277E+02 -0.36414786143E+02  0.50131145467E+02  0.51100000000E-03 0.  1.
         23    2    1    0    0    0  0.18993452249E+02  0.20044079618E+02  0.35769808121E+01  0.97155590367E+02  0.93080060119E+02 0.  0.
         11    1    3    3    0    0  0.20120516116E+02 -0.14391727658E+02  0.39991766955E+02  0.47024444900E+02  0.51100000000E-03 0. -1.
         22    1    1    0    0    0 -0.18993452249E+02 -0.20044079618E+02 -0.35769808121E+01  0.27844409633E+02  0.00000000000E+00 0.  1.
</event>
<event>
 5    1  0.1096978E-009  0.9118800E+02  0.7818608E-02  0.1130116E+00
         25   -1    0    0    0    0  0.00000000000E+00  0.00000000000E+00  0.99999998245E-14  0.12500000000E+03  0.12500000000E+03 0.  0.
        -11    1    3    3    0    0  0.44940563843E+02 -0.74865095943E+01 -0.10964354444E+02  0.46860635645E+02  0.51100000000E-03 0.  1.
         23    2    1    0    0    0  0.16769592584E+02 -0.23727775500E+02 -0.28919021613E+02  0.84005654333E+02  0.73324031416E+02 0.  0.
         11    1    3    3    0    0 -0.28170971259E+02 -0.16241265906E+02 -0.17954667169E+02  0.37145018688E+02  0.51100000000E-03 0. -1.
         22    1    1    0    0    0 -0.16769592584E+02  0.23727775500E+02  0.28919021613E+02  0.40994345667E+02  0.00000000000E+00 0.  1.
</event>
<event>
 5    1  0.1096978E-009  0.9118800E+02  0.7818608E-02  0.1130116E+00
         25   -1    0    0    0    0  0.00000000000E+00  0.00000000000E+00  0.99999998245E-14  0.12500000000E+03  0.12500000000E+03 0.  0.
        -11    1    3    3    0    0  0.52750838813E+01 -0.37385951009E+02 -0.49499417463E+02  0.62255346536E+02  0.51100000000E-03 0.  1.
         23    2    1    0    0    0 -0.22208799106E+00 -0.15785108077E+02 -0.15755116621E+02  0.10269657740E+03  0.10024542059E+03 0.  0.
         11    1    3    3    0    0 -0.54971718724E+01  0.21600842932E+02  0.33744300843E+02  0.40441230861E+02  0.51100000000E-03 0. -1.
         22    1    1    0    0    0  0.22208799106E+00  0.15785108077E+02  0.15755116621E+02  0.22303422603E+02  0.00000000000E+00 0.  1.
</event>
<event>
 5    1  0.1096978E-009  0.9118800E+02  0.7818608E-02  0.1130116E+00
         25   -1    0    0    0    0  0.00000000000E+00  0.00000000000E+00  0.99999998245E-14  0.12500000000E+03  0.12500000000E+03 0.  0.
        -11    1    3    3    0    0 -0.34077243854E+02 -0.28071453301E+02  0.34022897266E+02  0.55738878511E+02  0.51100000000E-03 0.  1.
         23    2    1    0    0    0 -0.29887516482E+02 -0.13425469334E+01  0.63976564364E+01  0.94405946957E+02  0.89311179251E+02 0.  0.
         11    1    3    3    0    0  0.41897273722E+01  0.26728906367E+02 -0.27625240829E+02  0.38667068446E+02  0.51100000000E-03 0. -1.
         22    1    1    0    0    0  0.29887516482E+02  0.13425469334E+01 -0.63976564364E+01  0.30594053043E+02  0.00000000000E+00 0.  1.
</event>
<event>
 5    1  0.1096978E-009  0.9118800E+02  0.7818608E-02  0.1130116E+00
         25   -1    0    0    0    0  0.00000000000E+00  0.00000000000E+00  0.99999998245E-14  0.12500000000E+03  0.12500000000E+03 0.  0.
        -11    1    3    3    0    0  0.10688321400E+02 -0.54114204453E+02 -0.21543529591E+02  0.59217489017E+02  0.51100000000E-03 0.  1.
         23    2    1    0    0    0  0.91942682662E+01 -0.17323855246E+02 -0.21309491414E+02  0.96038906204E+02  0.91568152494E+02 0.  0.
         11    1    3    3    0    0 -0.14940531339E+01  0.36790349207E+02  0.23403817786E+00  0.36821417187E+02  0.51100000000E-03 0. -1.
         22    1    1    0    0    0 -0.91942682662E+01  0.17323855246E+02  0.21309491414E+02  0.28961093796E+02  0.00000000000E+00 0.  1.
</event>
<event>
 5    1  0.1096978E-009  0.9118800E+02  0.7818608E-02  0.1130116E+00
         25   -1    0    0    0    0  0.00000000000E+00  0.00000000000E+00  0.99999998245E-14  0.12500000000E+03  0.12500000000E+03 0.  0.
        -11    1    3    3    0    0 -0.21659175165E+02 -0.25067155998E+02  0.41133708416E+02  0.52815377940E+02  0.51100000000E-03 0. -1.
         23    2    1    0    0    0 -0.24491605498E+02 -0.10989615514E+02 -0.18085834533E+01  0.98094956548E+02  0.94333128523E+02 0.  0.
         11    1    3    3    0    0 -0.28324303337E+01  0.14077540484E+02 -0.42942291869E+02  0.45279578608E+02  0.51100000000E-03 0.  1.
         22    1    1    0    0    0  0.24491605498E+02  0.10989615514E+02  0.18085834533E+01  0.26905043452E+02  0.00000000000E+00 0.  1.
</event>
<event>
 5    1  0.1096978E-009  0.9118800E+02  0.7818608E-02  0.1130116E+00
         25   -1    0    0    0    0  0.00000000000E+00  0.00000000000E+00  0.99999998245E-14  0.12500000000E+03  0.12500000000E+03 0.  0.
        -11    1    3    3    0    0 -0.19531206800E+02 -0.74534657576E+01  0.31905620005E+02  0.38144341377E+02  0.51100000000E-03 0.  1.
         23    2    1    0    0    0 -0.11182841469E+01  0.15806262570E+02 -0.20935845261E+02  0.98743608156E+02  0.95188770551E+02 0.  0.
         11    1    3    3    0    0  0.18412922653E+02  0.23259728327E+02 -0.52841465266E+02  0.60599266780E+02  0.51100000000E-03 0. -1.
         22    1    1    0    0    0  0.11182841469E+01 -0.15806262570E+02  0.20935845261E+02  0.26256391844E+02  0.00000000000E+00 0. -1.
</event>
<event>
 5    1  0.1096978E-009  0.9118800E+02  0.7818608E-02  0.1130116E+00
         25   -1    0    0    0    0  0.00000000000E+00  0.00000000000E+00  0.99999998245E-14  0.12500000000E+03  0.12500000000E+03 0.  0.
        -11    1    3    3    0    0 -0.32722320825E+02  0.19488160530E+01  0.23413319276E+02  0.40283143919E+02  0.51100000000E-03 0.  1.
         23    2    1    0    0    0  0.75510182379E+01 -0.28293673155E+02  0.25883594758E+00  0.95714904591E+02  0.91124783390E+02 0.  0.
         11    1    3    3    0    0  0.40273339063E+02 -0.30242489208E+02 -0.23154483329E+02  0.55431760673E+02  0.51100000000E-03 0. -1.
         22    1    1    0    0    0 -0.75510182379E+01  0.28293673155E+02 -0.25883594758E+00  0.29285095409E+02  0.00000000000E+00 0. -1.
</event>
<event>
 5    1  0.1096978E-009  0.9118800E+02  0.7818608E-02  0.1130116E+00
         25   -1    0    0    0    0  0.00000000000E+00  0.00000000000E+00  0.99999998245E-14  0.12500000000E+03  0.12500000000E+03 0.  0.
        -11    1    3    3    0    0  0.52411549219E+01 -0.52665978732E+02  0.40339148115E+01  0.53079633473E+02  0.51100000000E-03 0. -1.
         23    2    1    0    0    0  0.25648466136E+02 -0.17179603830E+02  0.15544732387E+01  0.94090470888E+02  0.88868541802E+02 0.  0.
         11    1    3    3    0    0  0.20407311214E+02  0.35486374902E+02 -0.24794415728E+01  0.41010837415E+02  0.51100000000E-03 0.  1.
         22    1    1    0    0    0 -0.25648466136E+02  0.17179603830E+02 -0.15544732387E+01  0.30909529112E+02  0.00000000000E+00 0. -1.
</event>
<event>
 5    1  0.1096978E-009  0.9118800E+02  0.7818608E-02  0.1130116E+00
         25   -1    0    0    0    0  0.00000000000E+00  0.00000000000E+00  0.99999998245E-14  0.12500000000E+03  0.12500000000E+03 0.  0.
        -11    1    3    3    0    0 -0.31212875060E+02 -0.24521454539E+02 -0.64095669977E+01  0.40207310922E+02  0.51100000000E-03 0.  1.
         23    2    1    0    0    0 -0.20431885272E+01  0.10784484156E+02 -0.30947286236E+02  0.92163827214E+02  0.86115949763E+02 0.  0.
         11    1    3    3    0    0  0.29169686533E+02  0.35305938695E+02 -0.24537719238E+02  0.51956516292E+02  0.51100000000E-03 0. -1.
         22    1    1    0    0    0  0.20431885272E+01 -0.10784484156E+02  0.30947286236E+02  0.32836172786E+02  0.00000000000E+00 0. -1.
</event>
<event>
 5    1  0.1096978E-009  0.9118800E+02  0.7818608E-02  0.1130116E+00
         25   -1    0    0    0    0  0.00000000000E+00  0.00000000000E+00  0.99999998245E-14  0.12500000000E+03  0.12500000000E+03 0.  0.
        -11    1    3    3    0    0  0.32865042032E+02  0.32091037081E+02 -0.41313243312E+02  0.61779686969E+02  0.51100000000E-03 0.  1.
         23    2    1    0    0    0  0.20881485154E+02  0.15427729308E+02 -0.15484492665E+02  0.94770531481E+02  0.89820002617E+02 0.  0.
         11    1    3    3    0    0 -0.11983556878E+02 -0.16663307773E+02  0.25828750647E+02  0.32990844512E+02  0.51100000000E-03 0. -1.
         22    1    1    0    0    0 -0.20881485154E+02 -0.15427729308E+02  0.15484492665E+02  0.30229468519E+02  0.00000000000E+00 0.  1.
</event>
<event>
 5    1  0.1096978E-009  0.9118800E+02  0.7818608E-02  0.1130116E+00
         25   -1    0    0    0    0  0.00000000000E+00  0.00000000000E+00  0.99999998245E-14  0.12500000000E+03  0.12500000000E+03 0.  0.
        -11    1    3    3    0    0 -0.36024373646E+02  0.23834298751E+02  0.35520482850E+02  0.55924359591E+02  0.51100000000E-03 0. -1.
         23    2    1    0    0    0 -0.91815512237E+01 -0.42459608857E+01  0.27646859567E+02  0.95560606143E+02  0.90912878823E+02 0.  0.
         11    1    3    3    0    0  0.26842822422E+02 -0.28080259637E+02 -0.78736232827E+01  0.39636246552E+02  0.51100000000E-03 0.  1.
         22    1    1    0    0    0  0.91815512237E+01  0.42459608857E+01 -0.27646859567E+02  0.29439393857E+02  0.00000000000E+00 0. -1.
</event>
<event>
 5    1  0.1096978E-009  0.9118800E+02  0.7818608E-02  0.1130116E+00
         25   -1    0    0    0    0  0.00000000000E+00  0.00000000000E+00  0.99999998245E-14  0.12500000000E+03  0.12500000000E+03 0.  0.
        -11    1    3    3    0    0 -0.77924920658E+01  0.43494261475E+02 -0.27005271884E+01  0.44269250741E+02  0.51100000000E-03 0.  1.
         23    2    1    0    0    0  0.69584922341E+00  0.48705757789E+01  0.29392446595E+02  0.95198613599E+02  0.90413789876E+02 0.  0.
         11    1    3    3    0    0  0.84883412892E+01 -0.38623685696E+02  0.32092973784E+02  0.50929362858E+02  0.51100000000E-03 0. -1.
         22    1    1    0    0    0 -0.69584922341E+00 -0.48705757789E+01 -0.29392446595E+02  0.29801386401E+02  0.00000000000E+00 0. -1.
</event>
<event>
 5    1  0.1096978E-009  0.9118800E+02  0.7818608E-02  0.1130116E+00
         25   -1    0    0    0    0  0.00000000000E+00  0.00000000000E+00  0.99999998245E-14  0.12500000000E+03  0.12500000000E+03 0.  0.
        -11    1    3    3    0    0 -0.20400682885E+02 -0.49754585161E+01 -0.25867912977E+02  0.33318042735E+02  0.51100000000E-03 0.  1.
         23    2    1    0    0    0  0.27388406548E+02  0.78592217238E+00  0.12509704368E+02  0.94879654878E+02  0.89971738449E+02 0.  0.
         11    1    3    3    0    0  0.47789089433E+02  0.57613806885E+01  0.38377617345E+02  0.61561612143E+02  0.51100000000E-03 0. -1.
         22    1    1    0    0    0 -0.27388406548E+02 -0.78592217238E+00 -0.12509704368E+02  0.30120345122E+02  0.00000000000E+00 0. -1.
</event>
<event>
 5    1  0.1096978E-009  0.9118800E+02  0.7818608E-02  0.1130116E+00
         25   -1    0    0    0    0  0.00000000000E+00  0.00000000000E+00  0.99999998245E-14  0.12500000000E+03  0.12500000000E+03 0.  0.
        -11    1    3    3    0    0 -0.20216074038E+02 -0.19107830933E+02  0.26404644992E+02  0.38353671661E+02  0.51100000000E-03 0.  1.
         23    2    1    0    0    0 -0.11209283346E+02  0.95125494107E+01 -0.23907921125E+02  0.96933555232E+02  0.92781403352E+02 0.  0.
         11    1    3    3    0    0  0.90067906926E+01  0.28620380344E+02 -0.50312566117E+02  0.58579883570E+02  0.51100000000E-03 0. -1.
         22    1    1    0    0    0  0.11209283346E+02 -0.95125494107E+01  0.23907921125E+02  0.28066444768E+02  0.00000000000E+00 0. -1.
</event>
<event>
 4    1  0.1096978E-009  0.9118800E+02  0.7818608E-02  0.1130116E+00
         25   -1    0    0    0    0  0.00000000000E+00  0.00000000000E+00  0.99999998245E-14  0.12500000000E+03  0.12500000000E+03 0.  0.
        -11    1    1    0    0    0  0.29900115849E+01 -0.59236610650E+02  0.19354270275E+02  0.62389934996E+02  0.51100000000E-03 0. -1.
         11    1    1    0    0    0 -0.80048850488E+00  0.75624796992E+01 -0.43323884443E+01  0.87522266276E+01  0.51100000000E-03 0.  1.
         22    1    1    0    0    0 -0.21895230800E+01  0.51674130951E+02 -0.15021881831E+02  0.53857838377E+02  0.00000000000E+00 0. -1.
</event>
<event>
 5    1  0.1096978E-009  0.9118800E+02  0.7818608E-02  0.1130116E+00
         25   -1    0    0    0    0  0.00000000000E+00  0.00000000000E+00  0.99999998245E-14  0.12500000000E+03  0.12500000000E+03 0.  0.
        -11    1    3    3    0    0  0.11837641858E+02  0.30585382102E+02  0.10699295960E+02  0.34497395516E+02  0.51100000000E-03 0.  1.
         23    2    1    0    0    0  0.12737731074E+02 -0.14836350749E+02 -0.25696800369E+02  0.92709248295E+02  0.86904039456E+02 0.  0.
         11    1    3    3    0    0  0.90008921570E+00 -0.45421732851E+02 -0.36396096328E+02  0.58211852779E+02  0.51100000000E-03 0. -1.
         22    1    1    0    0    0 -0.12737731074E+02  0.14836350749E+02  0.25696800369E+02  0.32290751705E+02  0.00000000000E+00 0. -1.
</event>
<event>
 5    1  0.1096978E-009  0.9118800E+02  0.7818608E-02  0.1130116E+00
         25   -1    0    0    0    0  0.00000000000E+00  0.00000000000E+00  0.99999998245E-14  0.12500000000E+03  0.12500000000E+03 0.  0.
        -11    1    3    3    0    0  0.44215692405E+02 -0.30373124585E+02  0.10508414923E+02  0.54662427099E+02  0.51100000000E-03 0. -1.
         23    2    1    0    0    0  0.26426107753E+02 -0.12230917140E+01 -0.12399575527E+02  0.95783829862E+02  0.91219282312E+02 0.  0.
         11    1    3    3    0    0 -0.17789584652E+02  0.29150032871E+02 -0.22907990450E+02  0.41121402763E+02  0.51100000000E-03 0.  1.
         22    1    1    0    0    0 -0.26426107753E+02  0.12230917140E+01  0.12399575527E+02  0.29216170138E+02  0.00000000000E+00 0. -1.
</event>
<event>
 5    1  0.1096978E-009  0.9118800E+02  0.7818608E-02  0.1130116E+00
         25   -1    0    0    0    0  0.00000000000E+00  0.00000000000E+00  0.99999998245E-14  0.12500000000E+03  0.12500000000E+03 0.  0.
        -11    1    3    3    0    0  0.15522791237E+02  0.12767561245E+02  0.31140181126E+02  0.37063169708E+02  0.51100000000E-03 0.  1.
         23    2    1    0    0    0 -0.14252639919E+02  0.18218535633E+02 -0.18618933953E+02  0.95306271927E+02  0.90562508699E+02 0.  0.
         11    1    3    3    0    0 -0.29775431157E+02  0.54509743878E+01 -0.49759115080E+02  0.58243102219E+02  0.51100000000E-03 0. -1.
         22    1    1    0    0    0  0.14252639919E+02 -0.18218535633E+02  0.18618933953E+02  0.29693728073E+02  0.00000000000E+00 0. -1.
</event>
<event>
 5    1  0.1096978E-009  0.9118800E+02  0.7818608E-02  0.1130116E+00
         25   -1    0    0    0    0  0.00000000000E+00  0.00000000000E+00  0.99999998245E-14  0.12500000000E+03  0.12500000000E+03 0.  0.
        -11    1    3    3    0    0 -0.44593079556E+02  0.14587362639E+02  0.21410817955E+02  0.51572832178E+02  0.51100000000E-03 0.  1.
         23    2    1    0    0    0 -0.19724130571E+02  0.18169521845E+02 -0.13808796506E+02  0.94836185390E+02  0.89911324913E+02 0.  0.
         11    1    3    3    0    0  0.24868948985E+02  0.35821592060E+01 -0.35219614460E+02  0.43263353213E+02  0.51100000000E-03 0. -1.
         22    1    1    0    0    0  0.19724130571E+02 -0.18169521845E+02  0.13808796506E+02  0.30163814610E+02  0.00000000000E+00 0.  1.
</event>
<event>
 5    1  0.1096978E-009  0.9118800E+02  0.7818608E-02  0.1130116E+00
         25   -1    0    0    0    0  0.00000000000E+00  0.00000000000E+00  0.99999998245E-14  0.12500000000E+03  0.12500000000E+03 0.  0.
        -11    1    3    3    0    0  0.12396138392E+01 -0.20413565340E+02 -0.30019674561E+02  0.36323974911E+02  0.51100000000E-03 0.  1.
         23    2    1    0    0    0 -0.12363955759E+01 -0.74788129629E+01  0.28088899561E+02  0.95906227541E+02  0.91386852912E+02 0.  0.
         11    1    3    3    0    0 -0.24760094151E+01  0.12934752377E+02  0.58108574122E+02  0.59582252629E+02  0.51100000000E-03 0. -1.
         22    1    1    0    0    0  0.12363955759E+01  0.74788129629E+01 -0.28088899561E+02  0.29093772459E+02  0.00000000000E+00 0. -1.
</event>
<event>
 5    1  0.1096978E-009  0.9118800E+02  0.7818608E-02  0.1130116E+00
         25   -1    0    0    0    0  0.00000000000E+00  0.00000000000E+00  0.99999998245E-14  0.12500000000E+03  0.12500000000E+03 0.  0.
        -11    1    3    3    0    0  0.16698698022E+02 -0.19333034987E+02  0.96113005290E+01  0.27294502296E+02  0.51100000000E-03 0. -1.
         23    2    1    0    0    0 -0.11638388783E+02  0.32953368127E+02 -0.76580577980E+01  0.89222599122E+02  0.81735241973E+02 0.  0.
         11    1    3    3    0    0 -0.28337086806E+02  0.52286403114E+02 -0.17269358327E+02  0.61928096826E+02  0.51100000000E-03 0.  1.
         22    1    1    0    0    0  0.11638388783E+02 -0.32953368127E+02  0.76580577980E+01  0.35777400878E+02  0.00000000000E+00 0.  1.
</event>
<event>
 5    1  0.1096978E-009  0.9118800E+02  0.7818608E-02  0.1130116E+00
         25   -1    0    0    0    0  0.00000000000E+00  0.00000000000E+00  0.99999998245E-14  0.12500000000E+03  0.12500000000E+03 0.  0.
        -11    1    3    3    0    0 -0.22626259520E+02 -0.55291194807E+02 -0.18349283219E+02  0.62496080181E+02  0.51100000000E-03 0.  1.
         23    2    1    0    0    0 -0.91881371878E+01 -0.22805195322E+02 -0.80420618946E+01  0.99131610832E+02  0.95696931549E+02 0.  0.
         11    1    3    3    0    0  0.13438122332E+02  0.32485999485E+02  0.10307221325E+02  0.36635530651E+02  0.51100000000E-03 0. -1.
         22    1    1    0    0    0  0.91881371878E+01  0.22805195322E+02  0.80420618946E+01  0.25868389168E+02  0.00000000000E+00 0.  1.
</event>
<event>
 5    1  0.1096978E-009  0.9118800E+02  0.7818608E-02  0.1130116E+00
         25   -1    0    0    0    0  0.00000000000E+00  0.00000000000E+00  0.99999998245E-14  0.12500000000E+03  0.12500000000E+03 0.  0.
        -11    1    3    3    0    0  0.23347106917E+02 -0.25510259347E+02  0.50995399981E+01  0.34955200497E+02  0.51100000000E-03 0. -1.
         23    2    1    0    0    0 -0.17166259946E+02  0.19592544384E+02  0.12635113360E+02  0.96048413419E+02  0.91581129905E+02 0.  0.
         11    1    3    3    0    0 -0.40513366863E+02  0.45102803731E+02  0.75355733615E+01  0.61093212922E+02  0.51100000000E-03 0.  1.
         22    1    1    0    0    0  0.17166259946E+02 -0.19592544384E+02 -0.12635113360E+02  0.28951586581E+02  0.00000000000E+00 0.  1.
</event>
<event>
 5    1  0.1096978E-009  0.9118800E+02  0.7818608E-02  0.1130116E+00
         25   -1    0    0    0    0  0.00000000000E+00  0.00000000000E+00  0.99999998245E-14  0.12500000000E+03  0.12500000000E+03 0.  0.
        -11    1    3    3    0    0  0.70333492382E+00  0.21352874336E+02 -0.52922458454E+02  0.57072116936E+02  0.51100000000E-03 0. -1.
         23    2    1    0    0    0 -0.68239179928E+01  0.24151829505E+02 -0.15159463303E+02  0.95679596645E+02  0.91076337000E+02 0.  0.
         11    1    3    3    0    0 -0.75272529166E+01  0.27989551692E+01  0.37762995151E+02  0.38607479710E+02  0.51100000000E-03 0.  1.
         22    1    1    0    0    0  0.68239179928E+01 -0.24151829505E+02  0.15159463303E+02  0.29320403355E+02  0.00000000000E+00 0. -1.
</event>
<event>
 5    1  0.1096978E-009  0.9118800E+02  0.7818608E-02  0.1130116E+00
         25   -1    0    0    0    0  0.00000000000E+00  0.00000000000E+00  0.99999998245E-14  0.12500000000E+03  0.12500000000E+03 0.  0.
        -11    1    3    3    0    0 -0.39191969070E+02 -0.30584650442E+02  0.36138127352E+02  0.61460520101E+02  0.51100000000E-03 0.  1.
         23    2    1    0    0    0 -0.20095545035E+02 -0.64644862128E+01  0.18551400307E+02  0.96897064823E+02  0.92732228517E+02 0.  0.
         11    1    3    3    0    0  0.19096424035E+02  0.24120164230E+02 -0.17586727045E+02  0.35436544722E+02  0.51100000000E-03 0. -1.
         22    1    1    0    0    0  0.20095545035E+02  0.64644862128E+01 -0.18551400307E+02  0.28102935177E+02  0.00000000000E+00 0.  1.
</event>
<event>
 5    1  0.1096978E-009  0.9118800E+02  0.7818608E-02  0.1130116E+00
         25   -1    0    0    0    0  0.00000000000E+00  0.00000000000E+00  0.99999998245E-14  0.12500000000E+03  0.12500000000E+03 0.  0.
        -11    1    3    3    0    0 -0.30877979778E+01  0.88369621483E+01  0.38630416689E+02  0.39748402360E+02  0.51100000000E-03 0. -1.
         23    2    1    0    0    0 -0.42416484405E+01  0.24118121615E+02 -0.15508194452E+02  0.96014150575E+02  0.91534352260E+02 0.  0.
         11    1    3    3    0    0 -0.11538504627E+01  0.15281159467E+02 -0.54138611141E+02  0.56265748214E+02  0.51100000000E-03 0.  1.
         22    1    1    0    0    0  0.42416484405E+01 -0.24118121615E+02  0.15508194452E+02  0.28985849425E+02  0.00000000000E+00 0. -1.
</event>
<event>
 5    1  0.1096978E-009  0.9118800E+02  0.7818608E-02  0.1130116E+00
         25   -1    0    0    0    0  0.00000000000E+00  0.00000000000E+00  0.99999998245E-14  0.12500000000E+03  0.12500000000E+03 0.  0.
        -11    1    3    3    0    0  0.16927795859E+02  0.32228646037E+02  0.18391447170E+02  0.40785796882E+02  0.51100000000E-03 0.  1.
         23    2    1    0    0    0 -0.54796358930E+00 -0.23460079903E+02  0.88144260569E+01  0.99932696199E+02  0.96737655800E+02 0.  0.
         11    1    3    3    0    0 -0.17475759448E+02 -0.55688725940E+02 -0.95770211135E+01  0.59146899317E+02  0.51100000000E-03 0. -1.
         22    1    1    0    0    0  0.54796358930E+00  0.23460079903E+02 -0.88144260569E+01  0.25067303801E+02  0.00000000000E+00 0. -1.
</event>
<event>
 5    1  0.1096978E-009  0.9118800E+02  0.7818608E-02  0.1130116E+00
         25   -1    0    0    0    0  0.00000000000E+00  0.00000000000E+00  0.99999998245E-14  0.12500000000E+03  0.12500000000E+03 0.  0.
        -11    1    3    3    0    0 -0.15841642551E+01 -0.97933636648E+01  0.32445165962E+02  0.33927987603E+02  0.51100000000E-03 0.  1.
         23    2    1    0    0    0  0.81544427437E+01  0.96020506897E+01 -0.25910859571E+02  0.96189117375E+02  0.91772977198E+02 0.  0.
         11    1    3    3    0    0  0.97386069989E+01  0.19395414354E+02 -0.58356025533E+02  0.62261129772E+02  0.51100000000E-03 0. -1.
         22    1    1    0    0    0 -0.81544427437E+01 -0.96020506897E+01  0.25910859571E+02  0.28810882625E+02  0.00000000000E+00 0. -1.
</event>
<event>
 5    1  0.1096978E-009  0.9118800E+02  0.7818608E-02  0.1130116E+00
         25   -1    0    0    0    0  0.00000000000E+00  0.00000000000E+00  0.99999998245E-14  0.12500000000E+03  0.12500000000E+03 0.  0.
        -11    1    3    3    0    0  0.10603394291E+02  0.22997950789E+02  0.29061861056E+02  0.38547755827E+02  0.51100000000E-03 0.  1.
         23    2    1    0    0    0 -0.17849682015E+02  0.10436149488E+02 -0.19736835438E+02  0.96415615499E+02  0.92080963694E+02 0.  0.
         11    1    3    3    0    0 -0.28453076307E+02 -0.12561801301E+02 -0.48798696494E+02  0.57867859672E+02  0.51100000000E-03 0. -1.
         22    1    1    0    0    0  0.17849682015E+02 -0.10436149488E+02  0.19736835438E+02  0.28584384501E+02  0.00000000000E+00 0. -1.
</event>
<event>
 5    1  0.1096978E-009  0.9118800E+02  0.7818608E-02  0.1130116E+00
         25   -1    0    0    0    0  0.00000000000E+00  0.00000000000E+00  0.99999998245E-14  0.12500000000E+03  0.12500000000E+03 0.  0.
        -11    1    3    3    0    0  0.20489833972E+02 -0.22732738476E+02 -0.29434580030E+02  0.42461808683E+02  0.51100000000E-03 0. -1.
         23    2    1    0    0    0 -0.14573881793E+01  0.24244991302E+02 -0.15620200857E+02  0.96122080090E+02  0.91681623145E+02 0.  0.
         11    1    3    3    0    0 -0.21947222151E+02  0.46977729778E+02  0.13814379173E+02  0.53660271407E+02  0.51100000000E-03 0.  1.
         22    1    1    0    0    0  0.14573881793E+01 -0.24244991302E+02  0.15620200857E+02  0.28877919910E+02  0.00000000000E+00 0.  1.
</event>
<event>
 5    1  0.1096978E-009  0.9118800E+02  0.7818608E-02  0.1130116E+00
         25   -1    0    0    0    0  0.00000000000E+00  0.00000000000E+00  0.99999998245E-14  0.12500000000E+03  0.12500000000E+03 0.  0.
        -11    1    3    3    0    0  0.42016914920E+02 -0.10830221000E+02 -0.28737275015E+02  0.52043691278E+02  0.51100000000E-03 0.  1.
         23    2    1    0    0    0 -0.12064074768E+01 -0.14039940759E+01 -0.28657283800E+02  0.96282992266E+02  0.91900751175E+02 0.  0.
         11    1    3    3    0    0 -0.43223322397E+02  0.94262269243E+01  0.79991214064E-01  0.44239300988E+02  0.51100000000E-03 0. -1.
         22    1    1    0    0    0  0.12064074768E+01  0.14039940759E+01  0.28657283800E+02  0.28717007734E+02  0.00000000000E+00 0. -1.
</event>
<event>
 5    1  0.1096978E-009  0.9118800E+02  0.7818608E-02  0.1130116E+00
         25   -1    0    0    0    0  0.00000000000E+00  0.00000000000E+00  0.99999998245E-14  0.12500000000E+03  0.12500000000E+03 0.  0.
        -11    1    3    3    0    0  0.39520354090E+02 -0.21279841312E+02  0.26369218978E+02  0.52057907597E+02  0.51100000000E-03 0.  1.
         23    2    1    0    0    0  0.23487190469E+02 -0.74857873021E+01 -0.13282648826E+02  0.96997966369E+02  0.92868140889E+02 0.  0.
         11    1    3    3    0    0 -0.16033163621E+02  0.13794054010E+02 -0.39651867804E+02  0.44940058771E+02  0.51100000000E-03 0. -1.
         22    1    1    0    0    0 -0.23487190469E+02  0.74857873021E+01  0.13282648826E+02  0.28002033631E+02  0.00000000000E+00 0.  1.
</event>
<event>
 5    1  0.1096978E-009  0.9118800E+02  0.7818608E-02  0.1130116E+00
         25   -1    0    0    0    0  0.00000000000E+00  0.00000000000E+00  0.99999998245E-14  0.12500000000E+03  0.12500000000E+03 0.  0.
        -11    1    3    3    0    0 -0.36566019264E+02 -0.36374632207E+02 -0.15485580385E+01  0.51600248693E+02  0.51100000000E-03 0. -1.
         23    2    1    0    0    0  0.73853628585E+01 -0.24034695440E+02  0.87114884480E+01  0.98389847794E+02  0.94723080337E+02 0.  0.
         11    1    3    3    0    0  0.43951382122E+02  0.12339936767E+02  0.10260046487E+02  0.46789599101E+02  0.51100000000E-03 0.  1.
         22    1    1    0    0    0 -0.73853628585E+01  0.24034695440E+02 -0.87114884480E+01  0.26610152206E+02  0.00000000000E+00 0. -1.
</event>
<event>
 5    1  0.1096978E-009  0.9118800E+02  0.7818608E-02  0.1130116E+00
         25   -1    0    0    0    0  0.00000000000E+00  0.00000000000E+00  0.99999998245E-14  0.12500000000E+03  0.12500000000E+03 0.  0.
        -11    1    3    3    0    0 -0.14825304509E+02  0.13837262062E+02 -0.54365607254E+02  0.58024811309E+02  0.51100000000E-03 0. -1.
         23    2    1    0    0    0 -0.99928547112E+01  0.20114745721E+02 -0.15449019850E+02  0.97739545950E+02  0.93860995560E+02 0.  0.
         11    1    3    3    0    0  0.48324497977E+01  0.62774836590E+01  0.38916587404E+02  0.39714734641E+02  0.51100000000E-03 0.  1.
         22    1    1    0    0    0  0.99928547112E+01 -0.20114745721E+02  0.15449019850E+02  0.27260454050E+02  0.00000000000E+00 0. -1.
</event>
<event>
 5    1  0.1096978E-009  0.9118800E+02  0.7818608E-02  0.1130116E+00
         25   -1    0    0    0    0  0.00000000000E+00  0.00000000000E+00  0.99999998245E-14  0.12500000000E+03  0.12500000000E+03 0.  0.
        -11    1    3    3    0    0 -0.25812939966E+02  0.46648600853E+02 -0.21561316145E+02  0.57509044379E+02  0.51100000000E-03 0. -1.
         23    2    1    0    0    0 -0.14968041897E+02  0.90755476477E+01 -0.22334185801E+02  0.96623536183E+02  0.92362784961E+02 0.  0.
         11    1    3    3    0    0  0.10844898069E+02 -0.37573053206E+02 -0.77286965572E+00  0.39114491804E+02  0.51100000000E-03 0.  1.
         22    1    1    0    0    0  0.14968041897E+02 -0.90755476477E+01  0.22334185801E+02  0.28376463817E+02  0.00000000000E+00 0. -1.
</event>
<event>
 5    1  0.1096978E-009  0.9118800E+02  0.7818608E-02  0.1130116E+00
         25   -1    0    0    0    0  0.00000000000E+00  0.00000000000E+00  0.99999998245E-14  0.12500000000E+03  0.12500000000E+03 0.  0.
        -11    1    3    3    0    0 -0.18725728203E+02 -0.33545317862E+02  0.38861885180E+02  0.54646018768E+02  0.51100000000E-03 0. -1.
         23    2    1    0    0    0 -0.16719826473E+02 -0.24288055751E+02 -0.87912462534E+00  0.95500252381E+02  0.90829857951E+02 0.  0.
         11    1    3    3    0    0  0.20059017301E+01  0.92572621105E+01 -0.39741009805E+02  0.40854233613E+02  0.51100000000E-03 0.  1.
         22    1    1    0    0    0  0.16719826473E+02  0.24288055751E+02  0.87912462534E+00  0.29499747619E+02  0.00000000000E+00 0. -1.
</event>
<event>
 5    1  0.1096978E-009  0.9118800E+02  0.7818608E-02  0.1130116E+00
         25   -1    0    0    0    0  0.00000000000E+00  0.00000000000E+00  0.99999998245E-14  0.12500000000E+03  0.12500000000E+03 0.  0.
        -11    1    3    3    0    0 -0.15322749790E+02 -0.35497485827E+01 -0.47381592074E+02  0.49923968631E+02  0.51100000000E-03 0.  1.
         23    2    1    0    0    0  0.29484997693E+01  0.24449970455E+02 -0.22991041790E+02  0.91309011461E+02  0.84866087840E+02 0.  0.
         11    1    3    3    0    0  0.18271249559E+02  0.27999719038E+02  0.24390550284E+02  0.41385042830E+02  0.51100000000E-03 0. -1.
         22    1    1    0    0    0 -0.29484997693E+01 -0.24449970455E+02  0.22991041790E+02  0.33690988539E+02  0.00000000000E+00 0.  1.
</event>
<event>
 5    1  0.1096978E-009  0.9118800E+02  0.7818608E-02  0.1130116E+00
         25   -1    0    0    0    0  0.00000000000E+00  0.00000000000E+00  0.99999998245E-14  0.12500000000E+03  0.12500000000E+03 0.  0.
        -11    1    3    3    0    0 -0.26389860007E+02  0.27750900090E+02 -0.11751802344E+02  0.40057983294E+02  0.51100000000E-03 0. -1.
         23    2    1    0    0    0 -0.10735358553E+02 -0.25383022654E+02 -0.10629392731E+02  0.95461385406E+02  0.90776353482E+02 0.  0.
         11    1    3    3    0    0  0.15654501454E+02 -0.53133922744E+02  0.11224096128E+01  0.55403402112E+02  0.51100000000E-03 0.  1.
         22    1    1    0    0    0  0.10735358553E+02  0.25383022654E+02  0.10629392731E+02  0.29538614594E+02  0.00000000000E+00 0.  1.
</event>
<event>
 5    1  0.1096978E-009  0.9118800E+02  0.7818608E-02  0.1130116E+00
         25   -1    0    0    0    0  0.00000000000E+00  0.00000000000E+00  0.99999998245E-14  0.12500000000E+03  0.12500000000E+03 0.  0.
        -11    1    3    3    0    0 -0.19521877412E+01  0.14460462958E+02  0.27864222718E+02  0.31453631489E+02  0.51100000000E-03 0. -1.
         23    2    1    0    0    0 -0.74871670199E+01 -0.32860556688E+02 -0.71091057821E+01  0.90555650088E+02  0.83749104605E+02 0.  0.
         11    1    3    3    0    0 -0.55349792786E+01 -0.47321019645E+02 -0.34973328500E+02  0.59102018599E+02  0.51100000000E-03 0.  1.
         22    1    1    0    0    0  0.74871670199E+01  0.32860556688E+02  0.71091057821E+01  0.34444349912E+02  0.00000000000E+00 0.  1.
</event>
<event>
 5    1  0.1096978E-009  0.9118800E+02  0.7818608E-02  0.1130116E+00
         25   -1    0    0    0    0  0.00000000000E+00  0.00000000000E+00  0.99999998245E-14  0.12500000000E+03  0.12500000000E+03 0.  0.
        -11    1    3    3    0    0 -0.25672283281E+02 -0.31751690205E+01  0.24827930481E+02  0.35854901469E+02  0.51100000000E-03 0. -1.
         23    2    1    0    0    0  0.18400638368E+02 -0.21823152209E+02 -0.96838072698E+01  0.94856848407E+02  0.89940047264E+02 0.  0.
         11    1    3    3    0    0  0.44072921649E+02 -0.18647983188E+02 -0.34511737751E+02  0.59001946938E+02  0.51100000000E-03 0.  1.
         22    1    1    0    0    0 -0.18400638368E+02  0.21823152209E+02  0.96838072698E+01  0.30143151593E+02  0.00000000000E+00 0.  1.
</event>
<event>
 5    1  0.1096978E-009  0.9118800E+02  0.7818608E-02  0.1130116E+00
         25   -1    0    0    0    0  0.00000000000E+00  0.00000000000E+00  0.99999998245E-14  0.12500000000E+03  0.12500000000E+03 0.  0.
        -11    1    3    3    0    0  0.24273784715E+02 -0.15051791473E+02 -0.42663968315E+02  0.51341866381E+02  0.51100000000E-03 0.  1.
         23    2    1    0    0    0  0.27169250043E+02 -0.87883248989E+01  0.18475184674E+01  0.96385036660E+02  0.92039443529E+02 0.  0.
         11    1    3    3    0    0  0.28954653284E+01  0.62634665740E+01  0.44511486782E+02  0.45043170279E+02  0.51100000000E-03 0. -1.
         22    1    1    0    0    0 -0.27169250043E+02  0.87883248989E+01 -0.18475184674E+01  0.28614963340E+02  0.00000000000E+00 0.  1.
</event>
<event>
 5    1  0.1096978E-009  0.9118800E+02  0.7818608E-02  0.1130116E+00
         25   -1    0    0    0    0  0.00000000000E+00  0.00000000000E+00  0.99999998245E-14  0.12500000000E+03  0.12500000000E+03 0.  0.
        -11    1    3    3    0    0 -0.37639660354E+01 -0.18057795462E+02  0.56507730891E+02  0.59442199387E+02  0.51100000000E-03 0. -1.
         23    2    1    0    0    0 -0.11848610984E+02  0.10226168209E+01  0.26972535270E+02  0.95521991480E+02  0.90859770361E+02 0.  0.
         11    1    3    3    0    0 -0.80846449483E+01  0.19080412283E+02 -0.29535195621E+02  0.36079792093E+02  0.51100000000E-03 0.  1.
         22    1    1    0    0    0  0.11848610984E+02 -0.10226168209E+01 -0.26972535270E+02  0.29478008520E+02  0.00000000000E+00 0. -1.
</event>
<event>
 5    1  0.1096978E-009  0.9118800E+02  0.7818608E-02  0.1130116E+00
         25   -1    0    0    0    0  0.00000000000E+00  0.00000000000E+00  0.99999998245E-14  0.12500000000E+03  0.12500000000E+03 0.  0.
        -11    1    3    3    0    0  0.13399188611E+02 -0.20543159125E+02 -0.28588249992E+02  0.37667594563E+02  0.51100000000E-03 0.  1.
         23    2    1    0    0    0 -0.27650975925E+02 -0.18642005710E+01  0.84493478513E+01  0.96026853942E+02  0.91551698431E+02 0.  0.
         11    1    3    3    0    0 -0.41050164536E+02  0.18678958554E+02  0.37037597843E+02  0.58359259380E+02  0.51100000000E-03 0. -1.
         22    1    1    0    0    0  0.27650975925E+02  0.18642005710E+01 -0.84493478513E+01  0.28973146058E+02  0.00000000000E+00 0. -1.
</event>
<event>
 5    1  0.1096978E-009  0.9118800E+02  0.7818608E-02  0.1130116E+00
         25   -1    0    0    0    0  0.00000000000E+00  0.00000000000E+00  0.99999998245E-14  0.12500000000E+03  0.12500000000E+03 0.  0.
        -11    1    3    3    0    0  0.11155895067E+02 -0.22077337056E+02  0.26417334224E+02  0.36190307459E+02  0.51100000000E-03 0.  1.
         23    2    1    0    0    0  0.62912135708E+01  0.30455045625E+02  0.35155238518E+01  0.93703864772E+02  0.88323078485E+02 0.  0.
         11    1    3    3    0    0 -0.48646814965E+01  0.52532382681E+02 -0.22901810372E+02  0.57513557313E+02  0.51100000000E-03 0. -1.
         22    1    1    0    0    0 -0.62912135708E+01 -0.30455045625E+02 -0.35155238518E+01  0.31296135228E+02  0.00000000000E+00 0. -1.
</event>
<event>
 5    1  0.1096978E-009  0.9118800E+02  0.7818608E-02  0.1130116E+00
         25   -1    0    0    0    0  0.00000000000E+00  0.00000000000E+00  0.99999998245E-14  0.12500000000E+03  0.12500000000E+03 0.  0.
        -11    1    3    3    0    0 -0.43176001619E+02  0.89902130745E+01  0.30497451022E+01  0.44207374864E+02  0.51100000000E-03 0.  1.
         23    2    1    0    0    0 -0.30151848765E+01 -0.19443890597E+02  0.20658330262E+02  0.96470667189E+02  0.92155666116E+02 0.  0.
         11    1    3    3    0    0  0.40160816743E+02 -0.28434103671E+02  0.17608585160E+02  0.52263292325E+02  0.51100000000E-03 0. -1.
         22    1    1    0    0    0  0.30151848765E+01  0.19443890597E+02 -0.20658330262E+02  0.28529332811E+02  0.00000000000E+00 0.  1.
</event>
<event>
 5    1  0.1096978E-009  0.9118800E+02  0.7818608E-02  0.1130116E+00
         25   -1    0    0    0    0  0.00000000000E+00  0.00000000000E+00  0.99999998245E-14  0.12500000000E+03  0.12500000000E+03 0.  0.
        -11    1    3    3    0    0 -0.15189513577E+02 -0.16961470340E+02  0.43170275757E+02  0.48806613364E+02  0.51100000000E-03 0.  1.
         23    2    1    0    0    0 -0.16230312155E+02 -0.22867619140E+02 -0.42790653948E+01  0.96633445073E+02  0.92376194273E+02 0.  0.
         11    1    3    3    0    0 -0.10407985777E+01 -0.59061487999E+01 -0.47449341152E+02  0.47826831709E+02  0.51100000000E-03 0. -1.
         22    1    1    0    0    0  0.16230312155E+02  0.22867619140E+02  0.42790653948E+01  0.28366554927E+02  0.00000000000E+00 0. -1.
</event>
<event>
 5    1  0.1096978E-009  0.9118800E+02  0.7818608E-02  0.1130116E+00
         25   -1    0    0    0    0  0.00000000000E+00  0.00000000000E+00  0.99999998245E-14  0.12500000000E+03  0.12500000000E+03 0.  0.
        -11    1    3    3    0    0  0.19546024634E+02 -0.81362481732E+01 -0.39907257663E+02  0.45175599916E+02  0.51100000000E-03 0. -1.
         23    2    1    0    0    0  0.44831646010E+00  0.27937863238E+02 -0.20330272814E+02  0.90445041128E+02  0.83583851802E+02 0.  0.
         11    1    3    3    0    0 -0.19097708174E+02  0.36074111411E+02  0.19576984849E+02  0.45269441212E+02  0.51100000000E-03 0.  1.
         22    1    1    0    0    0 -0.44831646010E+00 -0.27937863238E+02  0.20330272814E+02  0.34554958872E+02  0.00000000000E+00 0.  1.
</event>
<event>
 5    1  0.1096978E-009  0.9118800E+02  0.7818608E-02  0.1130116E+00
         25   -1    0    0    0    0  0.00000000000E+00  0.00000000000E+00  0.99999998245E-14  0.12500000000E+03  0.12500000000E+03 0.  0.
        -11    1    3    3    0    0  0.26880006703E+02 -0.31298045218E+02  0.84332292979E+01  0.42109639650E+02  0.51100000000E-03 0. -1.
         23    2    1    0    0    0 -0.67316194208E+01  0.16596238217E+00 -0.25064562174E+02  0.99046685751E+02  0.95585937447E+02 0.  0.
         11    1    3    3    0    0 -0.33611626123E+02  0.31464007600E+02 -0.33497791472E+02  0.56937046101E+02  0.51100000000E-03 0.  1.
         22    1    1    0    0    0  0.67316194208E+01 -0.16596238217E+00  0.25064562174E+02  0.25953314249E+02  0.00000000000E+00 0. -1.
</event>
<event>
 5    1  0.1096978E-009  0.9118800E+02  0.7818608E-02  0.1130116E+00
         25   -1    0    0    0    0  0.00000000000E+00  0.00000000000E+00  0.99999998245E-14  0.12500000000E+03  0.12500000000E+03 0.  0.
        -11    1    3    3    0    0  0.35451831243E+02 -0.20223427449E+02 -0.14170372356E+02  0.43204384144E+02  0.51100000000E-03 0.  1.
         23    2    1    0    0    0 -0.40901543266E+01  0.12467620599E+02 -0.26018278714E+02  0.95860306229E+02  0.91324019607E+02 0.  0.
         11    1    3    3    0    0 -0.39541985570E+02  0.32691048048E+02 -0.11847906358E+02  0.52655922085E+02  0.51100000000E-03 0. -1.
         22    1    1    0    0    0  0.40901543266E+01 -0.12467620599E+02  0.26018278714E+02  0.29139693771E+02  0.00000000000E+00 0. -1.
</event>
<event>
 5    1  0.1096978E-009  0.9118800E+02  0.7818608E-02  0.1130116E+00
         25   -1    0    0    0    0  0.00000000000E+00  0.00000000000E+00  0.99999998245E-14  0.12500000000E+03  0.12500000000E+03 0.  0.
        -11    1    3    3    0    0  0.29533501722E+02  0.23551025017E+02  0.69039375804E+01  0.38399776792E+02  0.51100000000E-03 0.  1.
         23    2    1    0    0    0 -0.25526022660E+02  0.12748619539E+02  0.10433017759E+02  0.94619858583E+02  0.89610070001E+02 0.  0.
         11    1    3    3    0    0 -0.55059524382E+02 -0.10802405479E+02  0.35290801782E+01  0.56220081790E+02  0.51100000000E-03 0. -1.
         22    1    1    0    0    0  0.25526022660E+02 -0.12748619539E+02 -0.10433017759E+02  0.30380141417E+02  0.00000000000E+00 0. -1.
</event>
<event>
 5    1  0.1096978E-009  0.9118800E+02  0.7818608E-02  0.1130116E+00
         25   -1    0    0    0    0  0.00000000000E+00  0.00000000000E+00  0.99999998245E-14  0.12500000000E+03  0.12500000000E+03 0.  0.
        -11    1    3    3    0    0 -0.11090925106E+02 -0.51332786281E+02 -0.21288262760E+02  0.56667924778E+02  0.51100000000E-03 0. -1.
         23    2    1    0    0    0 -0.50657842320E+01 -0.14221761337E+02 -0.26377422727E+02  0.94607746133E+02  0.89593172358E+02 0.  0.
         11    1    3    3    0    0  0.60251408737E+01  0.37111024944E+02 -0.50891599674E+01  0.37939821354E+02  0.51100000000E-03 0.  1.
         22    1    1    0    0    0  0.50657842320E+01  0.14221761337E+02  0.26377422727E+02  0.30392253867E+02  0.00000000000E+00 0. -1.
</event>
<event>
 5    1  0.1096978E-009  0.9118800E+02  0.7818608E-02  0.1130116E+00
         25   -1    0    0    0    0  0.00000000000E+00  0.00000000000E+00  0.99999998245E-14  0.12500000000E+03  0.12500000000E+03 0.  0.
        -11    1    3    3    0    0  0.25526220627E+02  0.44905210750E+01  0.33197993434E+02  0.42117211296E+02  0.51100000000E-03 0. -1.
         23    2    1    0    0    0 -0.14846962902E+02  0.52254567031E+01 -0.13791282442E+02  0.10407305143E+03  0.10194735336E+03 0.  0.
         11    1    3    3    0    0 -0.40373183530E+02  0.73493562812E+00 -0.46989275876E+02  0.61955840131E+02  0.51100000000E-03 0.  1.
         22    1    1    0    0    0  0.14846962902E+02 -0.52254567031E+01  0.13791282442E+02  0.20926948573E+02  0.00000000000E+00 0.  1.
</event>
<event>
 5    1  0.1096978E-009  0.9118800E+02  0.7818608E-02  0.1130116E+00
         25   -1    0    0    0    0  0.00000000000E+00  0.00000000000E+00  0.99999998245E-14  0.12500000000E+03  0.12500000000E+03 0.  0.
        -11    1    3    3    0    0  0.33880601191E+02 -0.14254685169E+02  0.45074863317E+02  0.58162139658E+02  0.51100000000E-03 0.  1.
         23    2    1    0    0    0  0.48223709171E+01 -0.19127449232E+02  0.20752494781E+02  0.96368188758E+02  0.92016559322E+02 0.  0.
         11    1    3    3    0    0 -0.29058230274E+02 -0.48727640636E+01 -0.24322368536E+02  0.38206049099E+02  0.51100000000E-03 0. -1.
         22    1    1    0    0    0 -0.48223709171E+01  0.19127449232E+02 -0.20752494781E+02  0.28631811242E+02  0.00000000000E+00 0.  1.
</event>
<event>
 5    1  0.1096978E-009  0.9118800E+02  0.7818608E-02  0.1130116E+00
         25   -1    0    0    0    0  0.00000000000E+00  0.00000000000E+00  0.99999998245E-14  0.12500000000E+03  0.12500000000E+03 0.  0.
        -11    1    3    3    0    0 -0.12585392302E+02 -0.56652339189E+02  0.60724368230E+01  0.58350270987E+02  0.51100000000E-03 0.  1.
         23    2    1    0    0    0  0.83160770860E+01 -0.27099822703E+02 -0.50266065584E+01  0.96210691184E+02  0.91802357246E+02 0.  0.
         11    1    3    3    0    0  0.20901469388E+02  0.29552516486E+02 -0.11099043381E+02  0.37860420197E+02  0.51100000000E-03 0. -1.
         22    1    1    0    0    0 -0.83160770860E+01  0.27099822703E+02  0.50266065584E+01  0.28789308816E+02  0.00000000000E+00 0.  1.
</event>
<event>
 5    1  0.1096978E-009  0.9118800E+02  0.7818608E-02  0.1130116E+00
         25   -1    0    0    0    0  0.00000000000E+00  0.00000000000E+00  0.99999998245E-14  0.12500000000E+03  0.12500000000E+03 0.  0.
        -11    1    3    3    0    0 -0.20455800861E+02  0.49895206727E+02  0.20681670501E+02  0.57755544653E+02  0.51100000000E-03 0. -1.
         23    2    1    0    0    0 -0.55776842425E+01  0.14558814939E+02  0.24151910898E+02  0.96253096620E+02  0.91860079223E+02 0.  0.
         11    1    3    3    0    0  0.14878116618E+02 -0.35336391788E+02  0.34702403970E+01  0.38497551966E+02  0.51100000000E-03 0.  1.
         22    1    1    0    0    0  0.55776842425E+01 -0.14558814939E+02 -0.24151910898E+02  0.28746903380E+02  0.00000000000E+00 0. -1.
</event>
<event>
 5    1  0.1096978E-009  0.9118800E+02  0.7818608E-02  0.1130116E+00
         25   -1    0    0    0    0  0.00000000000E+00  0.00000000000E+00  0.99999998245E-14  0.12500000000E+03  0.12500000000E+03 0.  0.
        -11    1    3    3    0    0 -0.26327448784E+02  0.20007400951E+02  0.38595379698E+02  0.50823557398E+02  0.51100000000E-03 0. -1.
         23    2    1    0    0    0 -0.99320189604E+01 -0.17233563171E+02  0.23472273710E+02  0.94233324305E+02  0.89069248768E+02 0.  0.
         11    1    3    3    0    0  0.16395429824E+02 -0.37240964123E+02 -0.15123105988E+02  0.43409766906E+02  0.51100000000E-03 0.  1.
         22    1    1    0    0    0  0.99320189604E+01  0.17233563171E+02 -0.23472273710E+02  0.30766675695E+02  0.00000000000E+00 0. -1.
</event>
<event>
 5    1  0.1096978E-009  0.9118800E+02  0.7818608E-02  0.1130116E+00
         25   -1    0    0    0    0  0.00000000000E+00  0.00000000000E+00  0.99999998245E-14  0.12500000000E+03  0.12500000000E+03 0.  0.
        -11    1    3    3    0    0  0.10743795416E+01 -0.24513261511E+02  0.15494662595E+02  0.29019628710E+02  0.51100000000E-03 0. -1.
         23    2    1    0    0    0 -0.21971951556E+02  0.25380224437E+02 -0.10514314469E+02  0.89822261920E+02  0.82647235163E+02 0.  0.
         11    1    3    3    0    0 -0.23046331097E+02  0.49893485948E+02 -0.26008977064E+02  0.60802633210E+02  0.51100000000E-03 0.  1.
         22    1    1    0    0    0  0.21971951556E+02 -0.25380224437E+02  0.10514314469E+02  0.35177738080E+02  0.00000000000E+00 0.  1.
</event>
<event>
 5    1  0.1096978E-009  0.9118800E+02  0.7818608E-02  0.1130116E+00
         25   -1    0    0    0    0  0.00000000000E+00  0.00000000000E+00  0.99999998245E-14  0.12500000000E+03  0.12500000000E+03 0.  0.
        -11    1    3    3    0    0 -0.28450691681E+02  0.34067888705E+02 -0.24550679243E+02  0.50722763623E+02  0.51100000000E-03 0.  1.
         23    2    1    0    0    0 -0.59986746466E+01 -0.39547505518E+01 -0.29018788226E+02  0.95104946570E+02  0.90284199296E+02 0.  0.
         11    1    3    3    0    0  0.22452017035E+02 -0.38022639257E+02 -0.44681089838E+01  0.44382182947E+02  0.51100000000E-03 0. -1.
         22    1    1    0    0    0  0.59986746466E+01  0.39547505518E+01  0.29018788226E+02  0.29895053430E+02  0.00000000000E+00 0.  1.
</event>
<event>
 5    1  0.1096978E-009  0.9118800E+02  0.7818608E-02  0.1130116E+00
         25   -1    0    0    0    0  0.00000000000E+00  0.00000000000E+00  0.99999998245E-14  0.12500000000E+03  0.12500000000E+03 0.  0.
        -11    1    3    3    0    0  0.35985923166E+02 -0.23007562706E+02 -0.31982762473E+02  0.53359457488E+02  0.51100000000E-03 0. -1.
         23    2    1    0    0    0  0.19063850230E+02 -0.21751081447E+02  0.64456041870E+01  0.95367488411E+02  0.90646964113E+02 0.  0.
         11    1    3    3    0    0 -0.16922072936E+02  0.12564812587E+01  0.38428366660E+02  0.42008030923E+02  0.51100000000E-03 0.  1.
         22    1    1    0    0    0 -0.19063850230E+02  0.21751081447E+02 -0.64456041870E+01  0.29632511589E+02  0.00000000000E+00 0. -1.
</event>
<event>
 5    1  0.1096978E-009  0.9118800E+02  0.7818608E-02  0.1130116E+00
         25   -1    0    0    0    0  0.00000000000E+00  0.00000000000E+00  0.99999998245E-14  0.12500000000E+03  0.12500000000E+03 0.  0.
        -11    1    3    3    0    0  0.33060409470E+02  0.30233573510E+02  0.68066648872E+01  0.45314350140E+02  0.51100000000E-03 0.  1.
         23    2    1    0    0    0  0.21484964025E+02 -0.15080726314E+02 -0.12517549019E+02  0.95918717038E+02  0.91403934595E+02 0.  0.
         11    1    3    3    0    0 -0.11575445446E+02 -0.45314299823E+02 -0.19324213906E+02  0.50604366897E+02  0.51100000000E-03 0. -1.
         22    1    1    0    0    0 -0.21484964025E+02  0.15080726314E+02  0.12517549019E+02  0.29081282962E+02  0.00000000000E+00 0.  1.
</event>
<event>
 5    1  0.1096978E-009  0.9118800E+02  0.7818608E-02  0.1130116E+00
         25   -1    0    0    0    0  0.00000000000E+00  0.00000000000E+00  0.99999998245E-14  0.12500000000E+03  0.12500000000E+03 0.  0.
        -11    1    3    3    0    0  0.16898333983E+02  0.18439086718E+02 -0.37928669456E+02  0.45432780868E+02  0.51100000000E-03 0. -1.
         23    2    1    0    0    0  0.41681731601E+01  0.25736749366E+02  0.11139419175E+02  0.96647917272E+02  0.92395775434E+02 0.  0.
         11    1    3    3    0    0 -0.12730160823E+02  0.72976626488E+01  0.49068088632E+02  0.51215136405E+02  0.51100000000E-03 0.  1.
         22    1    1    0    0    0 -0.41681731601E+01 -0.25736749366E+02 -0.11139419175E+02  0.28352082728E+02  0.00000000000E+00 0. -1.
</event>
<event>
 5    1  0.1096978E-009  0.9118800E+02  0.7818608E-02  0.1130116E+00
         25   -1    0    0    0    0  0.00000000000E+00  0.00000000000E+00  0.99999998245E-14  0.12500000000E+03  0.12500000000E+03 0.  0.
        -11    1    3    3    0    0 -0.15442007761E+02  0.53805475306E+02  0.10038947729E+02  0.56870600914E+02  0.51100000000E-03 0.  1.
         23    2    1    0    0    0 -0.12585601322E+02  0.15969598957E+02  0.20393968023E+02  0.96201746872E+02  0.91790177677E+02 0.  0.
         11    1    3    3    0    0  0.28564064388E+01 -0.37835876348E+02  0.10355020294E+02  0.39331145958E+02  0.51100000000E-03 0. -1.
         22    1    1    0    0    0  0.12585601322E+02 -0.15969598957E+02 -0.20393968023E+02  0.28798253128E+02  0.00000000000E+00 0.  1.
</event>
<event>
 5    1  0.1096978E-009  0.9118800E+02  0.7818608E-02  0.1130116E+00
         25   -1    0    0    0    0  0.00000000000E+00  0.00000000000E+00  0.99999998245E-14  0.12500000000E+03  0.12500000000E+03 0.  0.
        -11    1    3    3    0    0  0.41396675383E+02 -0.14485382433E+02  0.39175779611E+02  0.58806910695E+02  0.51100000000E-03 0. -1.
         23    2    1    0    0    0  0.27888136937E+01 -0.13182759570E+02  0.16852408850E+02  0.10342301421E+03  0.10114718757E+03 0.  0.
         11    1    3    3    0    0 -0.38607861690E+02  0.13026228633E+01 -0.22323370762E+02  0.44616103516E+02  0.51100000000E-03 0.  1.
         22    1    1    0    0    0 -0.27888136937E+01  0.13182759570E+02 -0.16852408850E+02  0.21576985789E+02  0.00000000000E+00 0. -1.
</event>
<event>
 5    1  0.1096978E-009  0.9118800E+02  0.7818608E-02  0.1130116E+00
         25   -1    0    0    0    0  0.00000000000E+00  0.00000000000E+00  0.99999998245E-14  0.12500000000E+03  0.12500000000E+03 0.  0.
        -11    1    3    3    0    0  0.69608547231E+01 -0.29244204434E+02 -0.27427808396E+02  0.40693508882E+02  0.51100000000E-03 0.  1.
         23    2    1    0    0    0 -0.12622912362E+02 -0.12141880533E+02  0.22201829058E+02  0.96721308501E+02  0.92495011353E+02 0.  0.
         11    1    3    3    0    0 -0.19583767085E+02  0.17102323901E+02  0.49629637455E+02  0.56027799619E+02  0.51100000000E-03 0. -1.
         22    1    1    0    0    0  0.12622912362E+02  0.12141880533E+02 -0.22201829058E+02  0.28278691499E+02  0.00000000000E+00 0. -1.
</event>
<event>
 5    1  0.1096978E-009  0.9118800E+02  0.7818608E-02  0.1130116E+00
         25   -1    0    0    0    0  0.00000000000E+00  0.00000000000E+00  0.99999998245E-14  0.12500000000E+03  0.12500000000E+03 0.  0.
        -11    1    3    3    0    0  0.27307468874E+01  0.30220315555E+02 -0.15372661694E+02  0.34015337402E+02  0.51100000000E-03 0. -1.
         23    2    1    0    0    0  0.23509279832E+01 -0.27740600089E+02  0.72427677536E+01  0.96233258085E+02  0.91833079667E+02 0.  0.
         11    1    3    3    0    0 -0.37981890428E+00 -0.57960915644E+02  0.22615429448E+02  0.62217920682E+02  0.51100000000E-03 0.  1.
         22    1    1    0    0    0 -0.23509279832E+01  0.27740600089E+02 -0.72427677536E+01  0.28766741915E+02  0.00000000000E+00 0.  1.
</event>
<event>
 5    1  0.1096978E-009  0.9118800E+02  0.7818608E-02  0.1130116E+00
         25   -1    0    0    0    0  0.00000000000E+00  0.00000000000E+00  0.99999998245E-14  0.12500000000E+03  0.12500000000E+03 0.  0.
        -11    1    3    3    0    0  0.99364561746E+00 -0.50078189354E+02  0.25001677566E+02  0.55981213474E+02  0.51100000000E-03 0.  1.
         23    2    1    0    0    0  0.20295246026E+02 -0.19647383910E+02  0.12310596665E+02  0.94186569551E+02  0.89003608847E+02 0.  0.
         11    1    3    3    0    0  0.19301600408E+02  0.30430805444E+02 -0.12691080901E+02  0.38205356077E+02  0.51100000000E-03 0. -1.
         22    1    1    0    0    0 -0.20295246026E+02  0.19647383910E+02 -0.12310596665E+02  0.30813430449E+02  0.00000000000E+00 0.  1.
</event>
<event>
 5    1  0.1096978E-009  0.9118800E+02  0.7818608E-02  0.1130116E+00
         25   -1    0    0    0    0  0.00000000000E+00  0.00000000000E+00  0.99999998245E-14  0.12500000000E+03  0.12500000000E+03 0.  0.
        -11    1    3    3    0    0  0.46351323574E+02  0.61377255726E+01  0.95588059969E+01  0.47723030548E+02  0.51100000000E-03 0.  1.
         23    2    1    0    0    0  0.10404804622E+02  0.17098245958E+02 -0.20874076595E+02  0.96080507477E+02  0.91624924935E+02 0.  0.
         11    1    3    3    0    0 -0.35946518952E+02  0.10960520386E+02 -0.30432882592E+02  0.48357476930E+02  0.51100000000E-03 0. -1.
         22    1    1    0    0    0 -0.10404804622E+02 -0.17098245958E+02  0.20874076595E+02  0.28919492523E+02  0.00000000000E+00 0. -1.
</event>
<event>
 5    1  0.1096978E-009  0.9118800E+02  0.7818608E-02  0.1130116E+00
         25   -1    0    0    0    0  0.00000000000E+00  0.00000000000E+00  0.99999998245E-14  0.12500000000E+03  0.12500000000E+03 0.  0.
        -11    1    3    3    0    0 -0.32739470241E+02 -0.81480465547E+00  0.24753755421E+02  0.41052225591E+02  0.51100000000E-03 0. -1.
         23    2    1    0    0    0 -0.37089181407E+01 -0.33266342836E+02 -0.76111506977E+00  0.91518886883E+02  0.85174654215E+02 0.  0.
         11    1    3    3    0    0  0.29030552100E+02 -0.32451538180E+02 -0.25514870490E+02  0.50466661292E+02  0.51100000000E-03 0.  1.
         22    1    1    0    0    0  0.37089181407E+01  0.33266342836E+02  0.76111506977E+00  0.33481113117E+02  0.00000000000E+00 0.  1.
</event>
<event>
 5    1  0.1096978E-009  0.9118800E+02  0.7818608E-02  0.1130116E+00
         25   -1    0    0    0    0  0.00000000000E+00  0.00000000000E+00  0.99999998245E-14  0.12500000000E+03  0.12500000000E+03 0.  0.
        -11    1    3    3    0    0  0.14509604333E+02  0.47320974146E+02  0.11312260394E+02  0.50771748517E+02  0.51100000000E-03 0.  1.
         23    2    1    0    0    0 -0.16896620796E+02  0.22311452318E+02 -0.87817657311E+01  0.95667149674E+02  0.91059252240E+02 0.  0.
         11    1    3    3    0    0 -0.31406225129E+02 -0.25009521828E+02 -0.20094026125E+02  0.44895401157E+02  0.51100000000E-03 0. -1.
         22    1    1    0    0    0  0.16896620796E+02 -0.22311452318E+02  0.87817657311E+01  0.29332850326E+02  0.00000000000E+00 0. -1.
</event>
<event>
 5    1  0.1096978E-009  0.9118800E+02  0.7818608E-02  0.1130116E+00
         25   -1    0    0    0    0  0.00000000000E+00  0.00000000000E+00  0.99999998245E-14  0.12500000000E+03  0.12500000000E+03 0.  0.
        -11    1    3    3    0    0  0.24709530673E+02 -0.45307551327E+02  0.12018187953E+02  0.52988413406E+02  0.51100000000E-03 0.  1.
         23    2    1    0    0    0  0.44301932479E+01 -0.14604710451E+02  0.28004566521E+02  0.93106741690E+02  0.87473912812E+02 0.  0.
         11    1    3    3    0    0 -0.20279337425E+02  0.30702840877E+02  0.15986378568E+02  0.40118328284E+02  0.51100000000E-03 0. -1.
         22    1    1    0    0    0 -0.44301932479E+01  0.14604710451E+02 -0.28004566521E+02  0.31893258310E+02  0.00000000000E+00 0.  1.
</event>
<event>
 5    1  0.1096978E-009  0.9118800E+02  0.7818608E-02  0.1130116E+00
         25   -1    0    0    0    0  0.00000000000E+00  0.00000000000E+00  0.99999998245E-14  0.12500000000E+03  0.12500000000E+03 0.  0.
        -11    1    3    3    0    0 -0.27034031088E+02  0.17729318486E+02  0.27784038365E+02  0.42627694741E+02  0.51100000000E-03 0. -1.
         23    2    1    0    0    0 -0.21109520046E+02 -0.15107646075E+02 -0.13524768378E+02  0.95729329250E+02  0.91144568200E+02 0.  0.
         11    1    3    3    0    0  0.59245110420E+01 -0.32836964561E+02 -0.41308806743E+02  0.53101634508E+02  0.51100000000E-03 0.  1.
         22    1    1    0    0    0  0.21109520046E+02  0.15107646075E+02  0.13524768378E+02  0.29270670750E+02  0.00000000000E+00 0.  1.
</event>
<event>
 5    1  0.1096978E-009  0.9118800E+02  0.7818608E-02  0.1130116E+00
         25   -1    0    0    0    0  0.00000000000E+00  0.00000000000E+00  0.99999998245E-14  0.12500000000E+03  0.12500000000E+03 0.  0.
        -11    1    3    3    0    0 -0.14214210557E+02 -0.32615029094E+02 -0.87593310305E+01  0.36640275448E+02  0.51100000000E-03 0.  1.
         23    2    1    0    0    0  0.94310850170E+01  0.19614565176E+02 -0.20430739847E+02  0.95148841525E+02  0.90344952162E+02 0.  0.
         11    1    3    3    0    0  0.23645295574E+02  0.52229594270E+02 -0.11671408816E+02  0.58508566077E+02  0.51100000000E-03 0. -1.
         22    1    1    0    0    0 -0.94310850170E+01 -0.19614565176E+02  0.20430739847E+02  0.29851158475E+02  0.00000000000E+00 0. -1.
</event>
<event>
 5    1  0.1096978E-009  0.9118800E+02  0.7818608E-02  0.1130116E+00
         25   -1    0    0    0    0  0.00000000000E+00  0.00000000000E+00  0.99999998245E-14  0.12500000000E+03  0.12500000000E+03 0.  0.
        -11    1    3    3    0    0  0.49058300004E+01  0.16215277447E+02  0.31363265645E+02  0.35646273618E+02  0.51100000000E-03 0.  1.
         23    2    1    0    0    0  0.10958217689E+02 -0.36452549113E+01 -0.25945651491E+02  0.96600224480E+02  0.92331230470E+02 0.  0.
         11    1    3    3    0    0  0.60523876890E+01 -0.19860532358E+02 -0.57308917135E+02  0.60953950863E+02  0.51100000000E-03 0. -1.
         22    1    1    0    0    0 -0.10958217689E+02  0.36452549113E+01  0.25945651491E+02  0.28399775520E+02  0.00000000000E+00 0. -1.
</event>
<event>
 5    1  0.1096978E-009  0.9118800E+02  0.7818608E-02  0.1130116E+00
         25   -1    0    0    0    0  0.00000000000E+00  0.00000000000E+00  0.99999998245E-14  0.12500000000E+03  0.12500000000E+03 0.  0.
        -11    1    3    3    0    0  0.44281473017E+02  0.17584218715E+02 -0.22287722617E+02  0.52600343916E+02  0.51100000000E-03 0. -1.
         23    2    1    0    0    0  0.25676738648E+02  0.37703446886E+01  0.13891247227E+02  0.95564015964E+02  0.90917567010E+02 0.  0.
         11    1    3    3    0    0 -0.18604734370E+02 -0.13813874026E+02  0.36178969844E+02  0.42963672048E+02  0.51100000000E-03 0.  1.
         22    1    1    0    0    0 -0.25676738648E+02 -0.37703446886E+01 -0.13891247227E+02  0.29435984036E+02  0.00000000000E+00 0. -1.
</event>
<event>
 5    1  0.1096978E-009  0.9118800E+02  0.7818608E-02  0.1130116E+00
         25   -1    0    0    0    0  0.00000000000E+00  0.00000000000E+00  0.99999998245E-14  0.12500000000E+03  0.12500000000E+03 0.  0.
        -11    1    3    3    0    0 -0.15492646215E+02  0.13751289077E+02 -0.25723709430E+02  0.33027704509E+02  0.51100000000E-03 0. -1.
         23    2    1    0    0    0  0.21541481438E+02 -0.22601557525E+02  0.50658832312E+01  0.93368860312E+02  0.87847681119E+02 0.  0.
         11    1    3    3    0    0  0.37034127653E+02 -0.36352846602E+02  0.30789592661E+02  0.60341155803E+02  0.51100000000E-03 0.  1.
         22    1    1    0    0    0 -0.21541481438E+02  0.22601557525E+02 -0.50658832312E+01  0.31631139688E+02  0.00000000000E+00 0.  1.
</event>
<event>
 5    1  0.1096978E-009  0.9118800E+02  0.7818608E-02  0.1130116E+00
         25   -1    0    0    0    0  0.00000000000E+00  0.00000000000E+00  0.99999998245E-14  0.12500000000E+03  0.12500000000E+03 0.  0.
        -11    1    3    3    0    0  0.20722474008E+02 -0.13400070969E+02 -0.24195110846E+02  0.34559893231E+02  0.51100000000E-03 0.  1.
         23    2    1    0    0    0 -0.52957522993E+01  0.28425549337E+02  0.98674424098E+01  0.94448023513E+02  0.89370050231E+02 0.  0.
         11    1    3    3    0    0 -0.26018226307E+02  0.41825620306E+02  0.34062553256E+02  0.59888130283E+02  0.51100000000E-03 0. -1.
         22    1    1    0    0    0  0.52957522993E+01 -0.28425549337E+02 -0.98674424098E+01  0.30551976487E+02  0.00000000000E+00 0. -1.
</event>
<event>
 5    1  0.1096978E-009  0.9118800E+02  0.7818608E-02  0.1130116E+00
         25   -1    0    0    0    0  0.00000000000E+00  0.00000000000E+00  0.99999998245E-14  0.12500000000E+03  0.12500000000E+03 0.  0.
        -11    1    3    3    0    0  0.28436245186E+02 -0.62333589697E+00  0.19319005653E+02  0.34383608996E+02  0.51100000000E-03 0. -1.
         23    2    1    0    0    0 -0.18921567641E+02 -0.25419657614E+02 -0.46567712845E+01  0.92970790925E+02  0.87279423297E+02 0.  0.
         11    1    3    3    0    0 -0.47357812826E+02 -0.24796321717E+02 -0.23975776937E+02  0.58587181929E+02  0.51100000000E-03 0.  1.
         22    1    1    0    0    0  0.18921567641E+02  0.25419657614E+02  0.46567712845E+01  0.32029209075E+02  0.00000000000E+00 0.  1.
</event>
<event>
 5    1  0.1096978E-009  0.9118800E+02  0.7818608E-02  0.1130116E+00
         25   -1    0    0    0    0  0.00000000000E+00  0.00000000000E+00  0.99999998245E-14  0.12500000000E+03  0.12500000000E+03 0.  0.
        -11    1    3    3    0    0 -0.37808549946E+02 -0.46272634684E+01 -0.23281534301E+02  0.44642220553E+02  0.51100000000E-03 0.  1.
         23    2    1    0    0    0 -0.31643174256E+01 -0.27052950670E+02  0.82077578874E+01  0.96552815003E+02  0.92267024179E+02 0.  0.
         11    1    3    3    0    0  0.34644232521E+02 -0.22425687201E+02  0.31489292188E+02  0.51910594450E+02  0.51100000000E-03 0. -1.
         22    1    1    0    0    0  0.31643174256E+01  0.27052950670E+02 -0.82077578874E+01  0.28447184997E+02  0.00000000000E+00 0. -1.
</event>
<event>
 5    1  0.1096978E-009  0.9118800E+02  0.7818608E-02  0.1130116E+00
         25   -1    0    0    0    0  0.00000000000E+00  0.00000000000E+00  0.99999998245E-14  0.12500000000E+03  0.12500000000E+03 0.  0.
        -11    1    3    3    0    0 -0.68169989433E+01 -0.25003762560E+02 -0.31227892811E+02  0.40581287639E+02  0.51100000000E-03 0.  1.
         23    2    1    0    0    0  0.13152855043E+02  0.20556165783E+02 -0.23863097028E+02  0.90867889792E+02  0.84213849503E+02 0.  0.
         11    1    3    3    0    0  0.19969853986E+02  0.45559928343E+02  0.73647957839E+01  0.50286602153E+02  0.51100000000E-03 0. -1.
         22    1    1    0    0    0 -0.13152855043E+02 -0.20556165783E+02  0.23863097028E+02  0.34132110208E+02  0.00000000000E+00 0. -1.
</event>
<event>
 5    1  0.1096978E-009  0.9118800E+02  0.7818608E-02  0.1130116E+00
         25   -1    0    0    0    0  0.00000000000E+00  0.00000000000E+00  0.99999998245E-14  0.12500000000E+03  0.12500000000E+03 0.  0.
        -11    1    3    3    0    0 -0.40796809184E+01  0.18611818539E+02  0.33856589118E+02  0.38849867602E+02  0.51100000000E-03 0. -1.
         23    2    1    0    0    0 -0.66378734176E+01  0.10634822393E+02 -0.24326665231E+02  0.97633095679E+02  0.93719122488E+02 0.  0.
         11    1    3    3    0    0 -0.25581924992E+01 -0.79769961463E+01 -0.58183254349E+02  0.58783228078E+02  0.51100000000E-03 0.  1.
         22    1    1    0    0    0  0.66378734176E+01 -0.10634822393E+02  0.24326665231E+02  0.27366904321E+02  0.00000000000E+00 0.  1.
</event>
<event>
 5    1  0.1096978E-009  0.9118800E+02  0.7818608E-02  0.1130116E+00
         25   -1    0    0    0    0  0.00000000000E+00  0.00000000000E+00  0.99999998245E-14  0.12500000000E+03  0.12500000000E+03 0.  0.
        -11    1    3    3    0    0 -0.26080310418E+02  0.42188187115E+02 -0.24679417381E+02  0.55399452760E+02  0.51100000000E-03 0.  1.
         23    2    1    0    0    0 -0.20619900475E+02  0.25851074834E+01 -0.20853245069E+02  0.95559875914E+02  0.90911874793E+02 0.  0.
         11    1    3    3    0    0  0.54604099433E+01 -0.39603079632E+02  0.38261723119E+01  0.40160423154E+02  0.51100000000E-03 0. -1.
         22    1    1    0    0    0  0.20619900475E+02 -0.25851074834E+01  0.20853245069E+02  0.29440124086E+02  0.00000000000E+00 0.  1.
</event>
<event>
 5    1  0.1096978E-009  0.9118800E+02  0.7818608E-02  0.1130116E+00
         25   -1    0    0    0    0  0.00000000000E+00  0.00000000000E+00  0.99999998245E-14  0.12500000000E+03  0.12500000000E+03 0.  0.
        -11    1    3    3    0    0 -0.36207882706E+02 -0.32907397532E+02  0.27272000535E+01  0.49003522351E+02  0.51100000000E-03 0. -1.
         23    2    1    0    0    0  0.92269271144E+01 -0.25885677727E+02 -0.83215300417E+01  0.96286721580E+02  0.91905823510E+02 0.  0.
         11    1    3    3    0    0  0.45434809820E+02  0.70217198048E+01 -0.11048730095E+02  0.47283199229E+02  0.51100000000E-03 0.  1.
         22    1    1    0    0    0 -0.92269271144E+01  0.25885677727E+02  0.83215300417E+01  0.28713278420E+02  0.00000000000E+00 0.  1.
</event>
<event>
 5    1  0.1096978E-009  0.9118800E+02  0.7818608E-02  0.1130116E+00
         25   -1    0    0    0    0  0.00000000000E+00  0.00000000000E+00  0.99999998245E-14  0.12500000000E+03  0.12500000000E+03 0.  0.
        -11    1    3    3    0    0 -0.11689373025E+02  0.47591454980E+02  0.20787180563E+02  0.53232461007E+02  0.51100000000E-03 0.  1.
         23    2    1    0    0    0 -0.29629144745E+01  0.65863640845E+01  0.28273211771E+02  0.95818952077E+02  0.91267398447E+02 0.  0.
         11    1    3    3    0    0  0.87264585500E+01 -0.41005090896E+02  0.74860312079E+01  0.42586491070E+02  0.51100000000E-03 0. -1.
         22    1    1    0    0    0  0.29629144745E+01 -0.65863640845E+01 -0.28273211771E+02  0.29181047923E+02  0.00000000000E+00 0.  1.
</event>
<event>
 5    1  0.1096978E-009  0.9118800E+02  0.7818608E-02  0.1130116E+00
         25   -1    0    0    0    0  0.00000000000E+00  0.00000000000E+00  0.99999998245E-14  0.12500000000E+03  0.12500000000E+03 0.  0.
        -11    1    3    3    0    0 -0.56243483259E+02 -0.14979307473E+02  0.69483707202E+01  0.58617309026E+02  0.51100000000E-03 0.  1.
         23    2    1    0    0    0 -0.16020569992E+02 -0.19439496464E+02 -0.68495498841E+00  0.99800360142E+02  0.96566505764E+02 0.  0.
         11    1    3    3    0    0  0.40222913267E+02 -0.44601889911E+01 -0.76333257086E+01  0.41183051116E+02  0.51100000000E-03 0. -1.
         22    1    1    0    0    0  0.16020569992E+02  0.19439496464E+02  0.68495498841E+00  0.25199639858E+02  0.00000000000E+00 0.  1.
</event>
<event>
 5    1  0.1096978E-009  0.9118800E+02  0.7818608E-02  0.1130116E+00
         25   -1    0    0    0    0  0.00000000000E+00  0.00000000000E+00  0.99999998245E-14  0.12500000000E+03  0.12500000000E+03 0.  0.
        -11    1    3    3    0    0  0.10406956883E+02  0.26774749881E+02  0.53567877737E+02  0.60784122173E+02  0.51100000000E-03 0. -1.
         23    2    1    0    0    0  0.12526885961E+02  0.55871614407E+01  0.25845063732E+02  0.95740701236E+02  0.91160162950E+02 0.  0.
         11    1    3    3    0    0  0.21199290777E+01 -0.21187588440E+02 -0.27722814005E+02  0.34956579063E+02  0.51100000000E-03 0.  1.
         22    1    1    0    0    0 -0.12526885961E+02 -0.55871614407E+01 -0.25845063732E+02  0.29259298764E+02  0.00000000000E+00 0. -1.
</event>
<event>
 5    1  0.1096978E-009  0.9118800E+02  0.7818608E-02  0.1130116E+00
         25   -1    0    0    0    0  0.00000000000E+00  0.00000000000E+00  0.99999998245E-14  0.12500000000E+03  0.12500000000E+03 0.  0.
        -11    1    3    3    0    0  0.16184456650E+02 -0.32848154526E+02  0.42240854176E+02  0.55903735605E+02  0.51100000000E-03 0.  1.
         23    2    1    0    0    0 -0.12267363321E+02 -0.97006239874E+01  0.22618284837E+02  0.97501325167E+02  0.93543205482E+02 0.  0.
         11    1    3    3    0    0 -0.28451819971E+02  0.23147530538E+02 -0.19622569339E+02  0.41597589562E+02  0.51100000000E-03 0. -1.
         22    1    1    0    0    0  0.12267363321E+02  0.97006239874E+01 -0.22618284837E+02  0.27498674833E+02  0.00000000000E+00 0.  1.
</event>
<event>
 5    1  0.1096978E-009  0.9118800E+02  0.7818608E-02  0.1130116E+00
         25   -1    0    0    0    0  0.00000000000E+00  0.00000000000E+00  0.99999998245E-14  0.12500000000E+03  0.12500000000E+03 0.  0.
        -11    1    3    3    0    0 -0.30064445320E+02 -0.32335012106E+02 -0.19665891201E+02  0.48333954496E+02  0.51100000000E-03 0.  1.
         23    2    1    0    0    0 -0.88875708731E+01 -0.18147429824E+02  0.20698678748E+02  0.96073309433E+02  0.91615104422E+02 0.  0.
         11    1    3    3    0    0  0.21176874446E+02  0.14187582282E+02  0.40364569949E+02  0.47739354937E+02  0.51100000000E-03 0. -1.
         22    1    1    0    0    0  0.88875708731E+01  0.18147429824E+02 -0.20698678748E+02  0.28926690567E+02  0.00000000000E+00 0. -1.
</event>
<event>
 5    1  0.1096978E-009  0.9118800E+02  0.7818608E-02  0.1130116E+00
         25   -1    0    0    0    0  0.00000000000E+00  0.00000000000E+00  0.99999998245E-14  0.12500000000E+03  0.12500000000E+03 0.  0.
        -11    1    3    3    0    0 -0.28436445421E+02  0.23130336057E+02 -0.26663183026E+00  0.36656717898E+02  0.51100000000E-03 0.  1.
         23    2    1    0    0    0  0.22499910441E+02 -0.15975684085E+01 -0.18163813378E+02  0.96039297123E+02  0.91568686137E+02 0.  0.
         11    1    3    3    0    0  0.50936355863E+02 -0.24727904465E+02 -0.17897181547E+02  0.59382579225E+02  0.51100000000E-03 0. -1.
         22    1    1    0    0    0 -0.22499910441E+02  0.15975684085E+01  0.18163813378E+02  0.28960702877E+02  0.00000000000E+00 0. -1.
</event>
<event>
 5    1  0.1096978E-009  0.9118800E+02  0.7818608E-02  0.1130116E+00
         25   -1    0    0    0    0  0.00000000000E+00  0.00000000000E+00  0.99999998245E-14  0.12500000000E+03  0.12500000000E+03 0.  0.
        -11    1    3    3    0    0 -0.16582110589E+02 -0.21773616748E+02  0.20474945606E+02  0.34180113746E+02  0.51100000000E-03 0. -1.
         23    2    1    0    0    0  0.20621330045E+02  0.49594258151E+01 -0.20396859970E+02  0.95574380994E+02  0.90931816481E+02 0.  0.
         11    1    3    3    0    0  0.37203440634E+02  0.26733042563E+02 -0.40871805575E+02  0.61394267248E+02  0.51100000000E-03 0.  1.
         22    1    1    0    0    0 -0.20621330045E+02 -0.49594258151E+01  0.20396859970E+02  0.29425619006E+02  0.00000000000E+00 0.  1.
</event>
<event>
 5    1  0.1096978E-009  0.9118800E+02  0.7818608E-02  0.1130116E+00
         25   -1    0    0    0    0  0.00000000000E+00  0.00000000000E+00  0.99999998245E-14  0.12500000000E+03  0.12500000000E+03 0.  0.
        -11    1    3    3    0    0 -0.25022502713E+02  0.26072678082E+02 -0.35223193653E+02  0.50463685515E+02  0.51100000000E-03 0. -1.
         23    2    1    0    0    0 -0.21874701012E+02  0.18736268620E+02  0.85475714898E+01  0.94956510114E+02  0.90078452076E+02 0.  0.
         11    1    3    3    0    0  0.31478017007E+01 -0.73364094616E+01  0.43770765143E+02  0.44492824599E+02  0.51100000000E-03 0.  1.
         22    1    1    0    0    0  0.21874701012E+02 -0.18736268620E+02 -0.85475714898E+01  0.30043489886E+02  0.00000000000E+00 0. -1.
</event>
<event>
 5    1  0.1096978E-009  0.9118800E+02  0.7818608E-02  0.1130116E+00
         25   -1    0    0    0    0  0.00000000000E+00  0.00000000000E+00  0.99999998245E-14  0.12500000000E+03  0.12500000000E+03 0.  0.
        -11    1    3    3    0    0 -0.75662991902E+01  0.48860433227E+02  0.36990250361E+02  0.61748436746E+02  0.51100000000E-03 0. -1.
         23    2    1    0    0    0 -0.31175441445E+01  0.26288431944E+02  0.11350748530E+02  0.96196524033E+02  0.91783064932E+02 0.  0.
         11    1    3    3    0    0  0.44487550458E+01 -0.22572001282E+02 -0.25639501831E+02  0.34448087287E+02  0.51100000000E-03 0.  1.
         22    1    1    0    0    0  0.31175441445E+01 -0.26288431944E+02 -0.11350748530E+02  0.28803475967E+02  0.00000000000E+00 0. -1.
</event>
<event>
 5    1  0.1096978E-009  0.9118800E+02  0.7818608E-02  0.1130116E+00
         25   -1    0    0    0    0  0.00000000000E+00  0.00000000000E+00  0.99999998245E-14  0.12500000000E+03  0.12500000000E+03 0.  0.
        -11    1    3    3    0    0 -0.28000513569E+02 -0.41532480374E+02 -0.27427820755E+01  0.50164714092E+02  0.51100000000E-03 0.  1.
         23    2    1    0    0    0 -0.23637783868E+02  0.20510788281E+01 -0.16528025903E+02  0.96084132543E+02  0.91629870325E+02 0.  0.
         11    1    3    3    0    0  0.43627297013E+01  0.43583559202E+02 -0.13785243828E+02  0.45919418451E+02  0.51100000000E-03 0. -1.
         22    1    1    0    0    0  0.23637783868E+02 -0.20510788281E+01  0.16528025903E+02  0.28915867457E+02  0.00000000000E+00 0. -1.
</event>
<event>
 5    1  0.1096978E-009  0.9118800E+02  0.7818608E-02  0.1130116E+00
         25   -1    0    0    0    0  0.00000000000E+00  0.00000000000E+00  0.99999998245E-14  0.12500000000E+03  0.12500000000E+03 0.  0.
        -11    1    3    3    0    0  0.51416006929E+01  0.15267565319E+02 -0.34546533120E+02  0.38118205091E+02  0.51100000000E-03 0. -1.
         23    2    1    0    0    0  0.97186640662E+01 -0.27289841624E+02  0.40456417516E+01  0.95750126423E+02  0.91173085973E+02 0.  0.
         11    1    3    3    0    0  0.45770633734E+01 -0.42557406943E+02  0.38592174872E+02  0.57631921332E+02  0.51100000000E-03 0.  1.
         22    1    1    0    0    0 -0.97186640662E+01  0.27289841624E+02 -0.40456417516E+01  0.29249873577E+02  0.00000000000E+00 0.  1.
</event>
<event>
 5    1  0.1096978E-009  0.9118800E+02  0.7818608E-02  0.1130116E+00
         25   -1    0    0    0    0  0.00000000000E+00  0.00000000000E+00  0.99999998245E-14  0.12500000000E+03  0.12500000000E+03 0.  0.
        -11    1    3    3    0    0  0.33722096562E+01 -0.21533237603E+02 -0.46496682036E+02  0.51351665604E+02  0.51100000000E-03 0. -1.
         23    2    1    0    0    0  0.88142807867E+01  0.15455086515E+02 -0.24473887947E+02  0.94742398704E+02  0.89780842477E+02 0.  0.
         11    1    3    3    0    0  0.54420711305E+01  0.36988324118E+02  0.22022794090E+02  0.43390733100E+02  0.51100000000E-03 0.  1.
         22    1    1    0    0    0 -0.88142807867E+01 -0.15455086515E+02  0.24473887947E+02  0.30257601296E+02  0.00000000000E+00 0.  1.
</event>
<event>
 5    1  0.1096978E-009  0.9118800E+02  0.7818608E-02  0.1130116E+00
         25   -1    0    0    0    0  0.00000000000E+00  0.00000000000E+00  0.99999998245E-14  0.12500000000E+03  0.12500000000E+03 0.  0.
        -11    1    3    3    0    0  0.29633124697E+02  0.40172853300E+02  0.10368504642E+02  0.50985155784E+02  0.51100000000E-03 0. -1.
         23    2    1    0    0    0 -0.69130635479E+00  0.12304374510E+02  0.26936687706E+02  0.95378037183E+02  0.90661509451E+02 0.  0.
         11    1    3    3    0    0 -0.30324431051E+02 -0.27868478790E+02  0.16568183063E+02  0.44392881399E+02  0.51100000000E-03 0.  1.
         22    1    1    0    0    0  0.69130635479E+00 -0.12304374510E+02 -0.26936687706E+02  0.29621962817E+02  0.00000000000E+00 0. -1.
</event>
<event>
 5    1  0.1096978E-009  0.9118800E+02  0.7818608E-02  0.1130116E+00
         25   -1    0    0    0    0  0.00000000000E+00  0.00000000000E+00  0.99999998245E-14  0.12500000000E+03  0.12500000000E+03 0.  0.
        -11    1    3    3    0    0  0.15106950149E+02 -0.25454716564E+02  0.45865478739E+02  0.54587587218E+02  0.51100000000E-03 0.  1.
         23    2    1    0    0    0 -0.98380975244E+01 -0.22128281792E+02  0.91236865668E+01  0.99121617621E+02  0.95683877458E+02 0.  0.
         11    1    3    3    0    0 -0.24945047673E+02  0.33264347716E+01 -0.36741792172E+02  0.44534030403E+02  0.51100000000E-03 0. -1.
         22    1    1    0    0    0  0.98380975244E+01  0.22128281792E+02 -0.91236865668E+01  0.25878382379E+02  0.00000000000E+00 0.  1.
</event>
<event>
 5    1  0.1096978E-009  0.9118800E+02  0.7818608E-02  0.1130116E+00
         25   -1    0    0    0    0  0.00000000000E+00  0.00000000000E+00  0.99999998245E-14  0.12500000000E+03  0.12500000000E+03 0.  0.
        -11    1    3    3    0    0 -0.44793839648E+02  0.21306691830E+02 -0.32088056745E+02  0.59077123940E+02  0.51100000000E-03 0.  1.
         23    2    1    0    0    0 -0.17813543788E+02  0.88808209593E+01  0.28020863333E+01  0.10489917885E+03  0.10295530444E+03 0.  0.
         11    1    3    3    0    0  0.26980295860E+02 -0.12425870871E+02  0.34890143078E+02  0.45822054906E+02  0.51100000000E-03 0. -1.
         22    1    1    0    0    0  0.17813543788E+02 -0.88808209593E+01 -0.28020863333E+01  0.20100821153E+02  0.00000000000E+00 0.  1.
</event>
<event>
 5    1  0.1096978E-009  0.9118800E+02  0.7818608E-02  0.1130116E+00
         25   -1    0    0    0    0  0.00000000000E+00  0.00000000000E+00  0.99999998245E-14  0.12500000000E+03  0.12500000000E+03 0.  0.
        -11    1    3    3    0    0  0.32364783029E+01  0.29890707012E+02 -0.38949336676E+02  0.49203455013E+02  0.51100000000E-03 0.  1.
         23    2    1    0    0    0 -0.16322659638E+02 -0.93284183602E+01 -0.21666734779E+02  0.96313836040E+02  0.91942694163E+02 0.  0.
         11    1    3    3    0    0 -0.19559137941E+02 -0.39219125372E+02  0.17282601897E+02  0.47110381027E+02  0.51100000000E-03 0. -1.
         22    1    1    0    0    0  0.16322659638E+02  0.93284183602E+01  0.21666734779E+02  0.28686163960E+02  0.00000000000E+00 0.  1.
</event>
<event>
 5    1  0.1096978E-009  0.9118800E+02  0.7818608E-02  0.1130116E+00
         25   -1    0    0    0    0  0.00000000000E+00  0.00000000000E+00  0.99999998245E-14  0.12500000000E+03  0.12500000000E+03 0.  0.
        -11    1    3    3    0    0  0.30572611106E+02 -0.33406908903E+02 -0.41198928723E+02  0.61221383850E+02  0.51100000000E-03 0. -1.
         23    2    1    0    0    0  0.17026426775E+01 -0.10588787704E+02 -0.15681784958E+02  0.10600158437E+03  0.10428516717E+03 0.  0.
         11    1    3    3    0    0 -0.28869968428E+02  0.22818121199E+02  0.25517143765E+02  0.44780200516E+02  0.51100000000E-03 0.  1.
         22    1    1    0    0    0 -0.17026426775E+01  0.10588787704E+02  0.15681784958E+02  0.18998415634E+02  0.00000000000E+00 0. -1.
</event>
<event>
 5    1  0.1096978E-009  0.9118800E+02  0.7818608E-02  0.1130116E+00
         25   -1    0    0    0    0  0.00000000000E+00  0.00000000000E+00  0.99999998245E-14  0.12500000000E+03  0.12500000000E+03 0.  0.
        -11    1    3    3    0    0 -0.57082052001E+02  0.11507500622E+02 -0.19660411139E+02  0.61459864933E+02  0.51100000000E-03 0. -1.
         23    2    1    0    0    0 -0.68963779308E+01 -0.38479740407E+01 -0.33848909153E+01  0.11640788622E+03  0.11609035944E+03 0.  0.
         11    1    3    3    0    0  0.50185674070E+02 -0.15355474662E+02  0.16275520224E+02  0.54948021282E+02  0.51100000000E-03 0.  1.
         22    1    1    0    0    0  0.68963779308E+01  0.38479740407E+01  0.33848909153E+01  0.85921137848E+01  0.00000000000E+00 0. -1.
</event>
<event>
 5    1  0.1096978E-009  0.9118800E+02  0.7818608E-02  0.1130116E+00
         25   -1    0    0    0    0  0.00000000000E+00  0.00000000000E+00  0.99999998245E-14  0.12500000000E+03  0.12500000000E+03 0.  0.
        -11    1    3    3    0    0 -0.90013122447E+01 -0.13419380947E+02 -0.47300961126E+02  0.49984841011E+02  0.51100000000E-03 0.  1.
         23    2    1    0    0    0  0.71804106565E+01  0.19908422423E+02 -0.17886585064E+02  0.97290191162E+02  0.93260644382E+02 0.  0.
         11    1    3    3    0    0  0.16181722901E+02  0.33327803370E+02  0.29414376062E+02  0.47305350151E+02  0.51100000000E-03 0. -1.
         22    1    1    0    0    0 -0.71804106565E+01 -0.19908422423E+02  0.17886585064E+02  0.27709808838E+02  0.00000000000E+00 0. -1.
</event>
<event>
 5    1  0.1096978E-009  0.9118800E+02  0.7818608E-02  0.1130116E+00
         25   -1    0    0    0    0  0.00000000000E+00  0.00000000000E+00  0.99999998245E-14  0.12500000000E+03  0.12500000000E+03 0.  0.
        -11    1    3    3    0    0  0.28145456514E+02 -0.41609112039E+02 -0.35965737135E+02  0.61782029547E+02  0.51100000000E-03 0.  1.
         23    2    1    0    0    0  0.10889540603E+02 -0.23948866406E+02 -0.12393354426E+02  0.95918639465E+02  0.91403828509E+02 0.  0.
         11    1    3    3    0    0 -0.17255915911E+02  0.17660245633E+02  0.23572382710E+02  0.34136609917E+02  0.51100000000E-03 0. -1.
         22    1    1    0    0    0 -0.10889540603E+02  0.23948866406E+02  0.12393354426E+02  0.29081360535E+02  0.00000000000E+00 0.  1.
</event>
<event>
 5    1  0.1096978E-009  0.9118800E+02  0.7818608E-02  0.1130116E+00
         25   -1    0    0    0    0  0.00000000000E+00  0.00000000000E+00  0.99999998245E-14  0.12500000000E+03  0.12500000000E+03 0.  0.
        -11    1    3    3    0    0 -0.19800812375E+02 -0.20764661014E+02 -0.45498831027E+02  0.53790212333E+02  0.51100000000E-03 0. -1.
         23    2    1    0    0    0  0.90473207688E+00  0.61334102581E+01 -0.35193614474E+02  0.89264474800E+02  0.81799258555E+02 0.  0.
         11    1    3    3    0    0  0.20705544452E+02  0.26898071272E+02  0.10305216552E+02  0.35474262468E+02  0.51100000000E-03 0.  1.
         22    1    1    0    0    0 -0.90473207688E+00 -0.61334102581E+01  0.35193614474E+02  0.35735525200E+02  0.00000000000E+00 0. -1.
</event>
<event>
 5    1  0.1096978E-009  0.9118800E+02  0.7818608E-02  0.1130116E+00
         25   -1    0    0    0    0  0.00000000000E+00  0.00000000000E+00  0.99999998245E-14  0.12500000000E+03  0.12500000000E+03 0.  0.
        -11    1    3    3    0    0 -0.10101012014E+02 -0.51544701633E+02  0.30435892378E+02  0.60706097349E+02  0.51100000000E-03 0.  1.
         23    2    1    0    0    0 -0.65034802950E+01 -0.26583346028E+02  0.38285413377E+01  0.97366193336E+02  0.93362456769E+02 0.  0.
         11    1    3    3    0    0  0.35975317185E+01  0.24961355606E+02 -0.26607351041E+02  0.36660095987E+02  0.51100000000E-03 0. -1.
         22    1    1    0    0    0  0.65034802950E+01  0.26583346028E+02 -0.38285413377E+01  0.27633806664E+02  0.00000000000E+00 0.  1.
</event>
<event>
 5    1  0.1096978E-009  0.9118800E+02  0.7818608E-02  0.1130116E+00
         25   -1    0    0    0    0  0.00000000000E+00  0.00000000000E+00  0.99999998245E-14  0.12500000000E+03  0.12500000000E+03 0.  0.
        -11    1    3    3    0    0  0.41697174695E+02  0.23681241305E+02  0.19332057231E+02  0.51702843290E+02  0.51100000000E-03 0.  1.
         23    2    1    0    0    0  0.16817150787E+02 -0.16209120144E+02  0.97868609645E+01  0.99675411474E+02  0.96404630950E+02 0.  0.
         11    1    3    3    0    0 -0.24880023907E+02 -0.39890361449E+02 -0.95451962664E+01  0.47972568184E+02  0.51100000000E-03 0. -1.
         22    1    1    0    0    0 -0.16817150787E+02  0.16209120144E+02 -0.97868609645E+01  0.25324588526E+02  0.00000000000E+00 0. -1.
</event>
<event>
 5    1  0.1096978E-009  0.9118800E+02  0.7818608E-02  0.1130116E+00
         25   -1    0    0    0    0  0.00000000000E+00  0.00000000000E+00  0.99999998245E-14  0.12500000000E+03  0.12500000000E+03 0.  0.
        -11    1    3    3    0    0 -0.69228328337E+00 -0.42168296016E+01  0.61590598061E+02  0.61738664367E+02  0.51100000000E-03 0.  1.
         23    2    1    0    0    0 -0.44271577092E+01  0.35756582792E+01  0.28379016675E+02  0.96056025758E+02  0.91591519473E+02 0.  0.
         11    1    3    3    0    0 -0.37348744258E+01  0.77924878808E+01 -0.33211581386E+02  0.34317361390E+02  0.51100000000E-03 0. -1.
         22    1    1    0    0    0  0.44271577092E+01 -0.35756582792E+01 -0.28379016675E+02  0.28943974242E+02  0.00000000000E+00 0.  1.
</event>
<event>
 5    1  0.1096978E-009  0.9118800E+02  0.7818608E-02  0.1130116E+00
         25   -1    0    0    0    0  0.00000000000E+00  0.00000000000E+00  0.99999998245E-14  0.12500000000E+03  0.12500000000E+03 0.  0.
        -11    1    3    3    0    0 -0.25787572319E+02 -0.27600778260E+02  0.24084787046E+02  0.44798201013E+02  0.51100000000E-03 0. -1.
         23    2    1    0    0    0 -0.55377691158E+01  0.18402060622E+02  0.22940827509E+02  0.95073685681E+02  0.90240907687E+02 0.  0.
         11    1    3    3    0    0  0.20249803204E+02  0.46002838882E+02 -0.11439595365E+01  0.50275484668E+02  0.51100000000E-03 0.  1.
         22    1    1    0    0    0  0.55377691158E+01 -0.18402060622E+02 -0.22940827509E+02  0.29926314319E+02  0.00000000000E+00 0.  1.
</event>
<event>
 5    1  0.1096978E-009  0.9118800E+02  0.7818608E-02  0.1130116E+00
         25   -1    0    0    0    0  0.00000000000E+00  0.00000000000E+00  0.99999998245E-14  0.12500000000E+03  0.12500000000E+03 0.  0.
        -11    1    3    3    0    0  0.44999879336E+02 -0.29334688154E+02 -0.14116705325E+02  0.55540925801E+02  0.51100000000E-03 0. -1.
         23    2    1    0    0    0  0.29572292766E+02 -0.55272257472E+01  0.10535022114E+02  0.93124344480E+02  0.87499063538E+02 0.  0.
         11    1    3    3    0    0 -0.15427586570E+02  0.23807462407E+02  0.24651727439E+02  0.37583418679E+02  0.51100000000E-03 0.  1.
         22    1    1    0    0    0 -0.29572292766E+02  0.55272257472E+01 -0.10535022114E+02  0.31875655520E+02  0.00000000000E+00 0. -1.
</event>
<event>
 5    1  0.1096978E-009  0.9118800E+02  0.7818608E-02  0.1130116E+00
         25   -1    0    0    0    0  0.00000000000E+00  0.00000000000E+00  0.99999998245E-14  0.12500000000E+03  0.12500000000E+03 0.  0.
        -11    1    3    3    0    0 -0.21851553537E+02 -0.30624171549E+02 -0.19778793070E+01  0.37672832145E+02  0.51100000000E-03 0. -1.
         23    2    1    0    0    0  0.26212799479E+02  0.58713913151E+01  0.12463932040E+01  0.98108782316E+02  0.94351447149E+02 0.  0.
         11    1    3    3    0    0  0.48064353016E+02  0.36495562864E+02  0.32242725110E+01  0.60435950171E+02  0.51100000000E-03 0.  1.
         22    1    1    0    0    0 -0.26212799479E+02 -0.58713913151E+01 -0.12463932040E+01  0.26891217684E+02  0.00000000000E+00 0.  1.
</event>
<event>
 5    1  0.1096978E-009  0.9118800E+02  0.7818608E-02  0.1130116E+00
         25   -1    0    0    0    0  0.00000000000E+00  0.00000000000E+00  0.99999998245E-14  0.12500000000E+03  0.12500000000E+03 0.  0.
        -11    1    3    3    0    0  0.15700178580E+01  0.22160310629E+02  0.26462027042E+02  0.34551167834E+02  0.51100000000E-03 0.  1.
         23    2    1    0    0    0 -0.81485273430E+01 -0.21740738908E+02 -0.16323426462E+02  0.96618448288E+02  0.92355898956E+02 0.  0.
         11    1    3    3    0    0 -0.97185452010E+01 -0.43901049536E+02 -0.42785453504E+02  0.62067280455E+02  0.51100000000E-03 0. -1.
         22    1    1    0    0    0  0.81485273430E+01  0.21740738908E+02  0.16323426462E+02  0.28381551712E+02  0.00000000000E+00 0. -1.
</event>
<event>
 5    1  0.1096978E-009  0.9118800E+02  0.7818608E-02  0.1130116E+00
         25   -1    0    0    0    0  0.00000000000E+00  0.00000000000E+00  0.99999998245E-14  0.12500000000E+03  0.12500000000E+03 0.  0.
        -11    1    3    3    0    0  0.14092866973E+02 -0.62490103477E+01  0.27236125790E+02  0.31296414781E+02  0.51100000000E-03 0. -1.
         23    2    1    0    0    0 -0.22997748342E+02 -0.88010925328E+01 -0.21304282438E+02  0.92438855844E+02  0.86514241376E+02 0.  0.
         11    1    3    3    0    0 -0.37090615315E+02 -0.25520821852E+01 -0.48540408227E+02  0.61142441063E+02  0.51100000000E-03 0.  1.
         22    1    1    0    0    0  0.22997748342E+02  0.88010925328E+01  0.21304282438E+02  0.32561144156E+02  0.00000000000E+00 0.  1.
</event>
<event>
 5    1  0.1096978E-009  0.9118800E+02  0.7818608E-02  0.1130116E+00
         25   -1    0    0    0    0  0.00000000000E+00  0.00000000000E+00  0.99999998245E-14  0.12500000000E+03  0.12500000000E+03 0.  0.
        -11    1    3    3    0    0 -0.16616890542E+02 -0.27628793196E+02 -0.50147272100E+02  0.59617280751E+02  0.51100000000E-03 0.  1.
         23    2    1    0    0    0  0.48482053742E+01 -0.17489437768E+02 -0.23552003686E+02  0.95266476724E+02  0.90507564220E+02 0.  0.
         11    1    3    3    0    0  0.21465095916E+02  0.10139355428E+02  0.26595268415E+02  0.35649195973E+02  0.51100000000E-03 0. -1.
         22    1    1    0    0    0 -0.48482053742E+01  0.17489437768E+02  0.23552003686E+02  0.29733523276E+02  0.00000000000E+00 0.  1.
</event>
<event>
 5    1  0.1096978E-009  0.9118800E+02  0.7818608E-02  0.1130116E+00
         25   -1    0    0    0    0  0.00000000000E+00  0.00000000000E+00  0.99999998245E-14  0.12500000000E+03  0.12500000000E+03 0.  0.
        -11    1    3    3    0    0 -0.25467704548E+02 -0.23503550289E+02  0.43670115596E+02  0.55750334955E+02  0.51100000000E-03 0. -1.
         23    2    1    0    0    0 -0.26149195300E+02 -0.82862943177E+01  0.52614647351E+01  0.97069262460E+02  0.92964055500E+02 0.  0.
         11    1    3    3    0    0 -0.68149075200E+00  0.15217255971E+02 -0.38408650861E+02  0.41318927505E+02  0.51100000000E-03 0.  1.
         22    1    1    0    0    0  0.26149195300E+02  0.82862943177E+01 -0.52614647351E+01  0.27930737540E+02  0.00000000000E+00 0. -1.
</event>
<event>
 5    1  0.1096978E-009  0.9118800E+02  0.7818608E-02  0.1130116E+00
         25   -1    0    0    0    0  0.00000000000E+00  0.00000000000E+00  0.99999998245E-14  0.12500000000E+03  0.12500000000E+03 0.  0.
        -11    1    3    3    0    0  0.21005375914E+02  0.27668379622E+02  0.36303849506E+02  0.50246736585E+02  0.51100000000E-03 0.  1.
         23    2    1    0    0    0 -0.14153071926E+01 -0.10136990601E+02  0.28277212877E+02  0.94927380543E+02  0.90038020501E+02 0.  0.
         11    1    3    3    0    0 -0.22420683106E+02 -0.37805370224E+02 -0.80266366288E+01  0.44680643958E+02  0.51100000000E-03 0. -1.
         22    1    1    0    0    0  0.14153071926E+01  0.10136990601E+02 -0.28277212877E+02  0.30072619457E+02  0.00000000000E+00 0.  1.
</event>
<event>
 5    1  0.1096978E-009  0.9118800E+02  0.7818608E-02  0.1130116E+00
         25   -1    0    0    0    0  0.00000000000E+00  0.00000000000E+00  0.99999998245E-14  0.12500000000E+03  0.12500000000E+03 0.  0.
        -11    1    3    3    0    0 -0.54587828479E+01 -0.32191058822E+02 -0.47299785136E+02  0.57474622682E+02  0.51100000000E-03 0. -1.
         23    2    1    0    0    0  0.18143454520E+01  0.49652099611E+00 -0.29578847628E+02  0.95361400008E+02  0.90638567960E+02 0.  0.
         11    1    3    3    0    0  0.72731283000E+01  0.32687579818E+02  0.17720937509E+02  0.37886777325E+02  0.51100000000E-03 0.  1.
         22    1    1    0    0    0 -0.18143454520E+01 -0.49652099611E+00  0.29578847628E+02  0.29638599992E+02  0.00000000000E+00 0. -1.
</event>
<event>
 5    1  0.1096978E-009  0.9118800E+02  0.7818608E-02  0.1130116E+00
         25   -1    0    0    0    0  0.00000000000E+00  0.00000000000E+00  0.99999998245E-14  0.12500000000E+03  0.12500000000E+03 0.  0.
        -11    1    3    3    0    0  0.44071200332E+02  0.22066843753E+02  0.12029201577E+02  0.50733795273E+02  0.51100000000E-03 0.  1.
         23    2    1    0    0    0  0.24259694243E+02 -0.31596328901E+01 -0.17964240993E+02  0.94648229060E+02  0.89649636167E+02 0.  0.
         11    1    3    3    0    0 -0.19811506089E+02 -0.25226476643E+02 -0.29993442570E+02  0.43914433787E+02  0.51100000000E-03 0. -1.
         22    1    1    0    0    0 -0.24259694243E+02  0.31596328901E+01  0.17964240993E+02  0.30351770940E+02  0.00000000000E+00 0. -1.
</event>
<event>
 5    1  0.1096978E-009  0.9118800E+02  0.7818608E-02  0.1130116E+00
         25   -1    0    0    0    0  0.00000000000E+00  0.00000000000E+00  0.99999998245E-14  0.12500000000E+03  0.12500000000E+03 0.  0.
        -11    1    3    3    0    0 -0.48960207991E+02  0.74136968871E+01  0.21073488493E+02  0.53815952891E+02  0.51100000000E-03 0.  1.
         23    2    1    0    0    0 -0.70965569373E+01  0.22004542899E+02  0.11525500809E+02  0.99165948877E+02  0.95741773637E+02 0.  0.
         11    1    3    3    0    0  0.41863651053E+02  0.14590846012E+02 -0.95479876841E+01  0.45349995986E+02  0.51100000000E-03 0. -1.
         22    1    1    0    0    0  0.70965569373E+01 -0.22004542899E+02 -0.11525500809E+02  0.25834051123E+02  0.00000000000E+00 0.  1.
</event>
<event>
 5    1  0.1096978E-009  0.9118800E+02  0.7818608E-02  0.1130116E+00
         25   -1    0    0    0    0  0.00000000000E+00  0.00000000000E+00  0.99999998245E-14  0.12500000000E+03  0.12500000000E+03 0.  0.
        -11    1    3    3    0    0  0.32039094497E+01 -0.40059443378E+02  0.38312946915E+01  0.40369578383E+02  0.51100000000E-03 0. -1.
         23    2    1    0    0    0 -0.16109334871E+01  0.86969111844E+01  0.28454397321E+02  0.95202615925E+02  0.90419323052E+02 0.  0.
         11    1    3    3    0    0 -0.48148429369E+01  0.48756354562E+02  0.24623102629E+02  0.54833037542E+02  0.51100000000E-03 0.  1.
         22    1    1    0    0    0  0.16109334871E+01 -0.86969111844E+01 -0.28454397321E+02  0.29797384075E+02  0.00000000000E+00 0.  1.
</event>
<event>
 5    1  0.1096978E-009  0.9118800E+02  0.7818608E-02  0.1130116E+00
         25   -1    0    0    0    0  0.00000000000E+00  0.00000000000E+00  0.99999998245E-14  0.12500000000E+03  0.12500000000E+03 0.  0.
        -11    1    3    3    0    0 -0.47810358835E+02 -0.35114997636E+02  0.10529777078E+02  0.60247569880E+02  0.51100000000E-03 0. -1.
         23    2    1    0    0    0 -0.27945224057E+02 -0.80775622568E+01 -0.14546680798E+01  0.95874433588E+02  0.91343354422E+02 0.  0.
         11    1    3    3    0    0  0.19865134779E+02  0.27037435379E+02 -0.11984445158E+02  0.35626863708E+02  0.51100000000E-03 0.  1.
         22    1    1    0    0    0  0.27945224057E+02  0.80775622568E+01  0.14546680798E+01  0.29125566412E+02  0.00000000000E+00 0. -1.
</event>
<event>
 5    1  0.1096978E-009  0.9118800E+02  0.7818608E-02  0.1130116E+00
         25   -1    0    0    0    0  0.00000000000E+00  0.00000000000E+00  0.99999998245E-14  0.12500000000E+03  0.12500000000E+03 0.  0.
        -11    1    3    3    0    0 -0.18272957919E+02  0.15949132236E+02 -0.50190371380E+02  0.55743602232E+02  0.51100000000E-03 0.  1.
         23    2    1    0    0    0  0.56930584159E+01 -0.68392610374E+01 -0.28127348187E+02  0.95498574243E+02  0.90827548469E+02 0.  0.
         11    1    3    3    0    0  0.23966016335E+02 -0.22788393274E+02  0.22063023194E+02  0.39754972012E+02  0.51100000000E-03 0. -1.
         22    1    1    0    0    0 -0.56930584159E+01  0.68392610374E+01  0.28127348187E+02  0.29501425757E+02  0.00000000000E+00 0.  1.
</event>
<event>
 5    1  0.1096978E-009  0.9118800E+02  0.7818608E-02  0.1130116E+00
         25   -1    0    0    0    0  0.00000000000E+00  0.00000000000E+00  0.99999998245E-14  0.12500000000E+03  0.12500000000E+03 0.  0.
        -11    1    3    3    0    0 -0.11935379985E+02  0.23483280489E+02  0.50957757506E+02  0.57363845828E+02  0.51100000000E-03 0.  1.
         23    2    1    0    0    0 -0.15854390378E+02 -0.38154566643E+01  0.24411562638E+02  0.95642823803E+02  0.91025853200E+02 0.  0.
         11    1    3    3    0    0 -0.39190103928E+01 -0.27298737153E+02 -0.26546194868E+02  0.38278977975E+02  0.51100000000E-03 0. -1.
         22    1    1    0    0    0  0.15854390378E+02  0.38154566643E+01 -0.24411562638E+02  0.29357176197E+02  0.00000000000E+00 0.  1.
</event>
<event>
 5    1  0.1096978E-009  0.9118800E+02  0.7818608E-02  0.1130116E+00
         25   -1    0    0    0    0  0.00000000000E+00  0.00000000000E+00  0.99999998245E-14  0.12500000000E+03  0.12500000000E+03 0.  0.
        -11    1    3    3    0    0  0.19632546266E+02  0.32631768727E+02 -0.23653307464E+02  0.44830214782E+02  0.51100000000E-03 0.  1.
         23    2    1    0    0    0  0.22598918444E+02 -0.44379832750E+01  0.14239506599E+02  0.97922881273E+02  0.94104836849E+02 0.  0.
         11    1    3    3    0    0  0.29663721774E+01 -0.37069752002E+02  0.37892814063E+02  0.53092666492E+02  0.51100000000E-03 0. -1.
         22    1    1    0    0    0 -0.22598918444E+02  0.44379832750E+01 -0.14239506599E+02  0.27077118727E+02  0.00000000000E+00 0. -1.
</event>
<event>
 5    1  0.1096978E-009  0.9118800E+02  0.7818608E-02  0.1130116E+00
         25   -1    0    0    0    0  0.00000000000E+00  0.00000000000E+00  0.99999998245E-14  0.12500000000E+03  0.12500000000E+03 0.  0.
        -11    1    3    3    0    0  0.12388983438E+02  0.32057445835E+02  0.24044153519E+02  0.41943868000E+02  0.51100000000E-03 0. -1.
         23    2    1    0    0    0  0.99286356746E+01 -0.21047311395E+02  0.18260708563E+02  0.95419252873E+02  0.90718317987E+02 0.  0.
         11    1    3    3    0    0 -0.24603477631E+01 -0.53104757230E+02 -0.57834449556E+01  0.53475384874E+02  0.51100000000E-03 0.  1.
         22    1    1    0    0    0 -0.99286356746E+01  0.21047311395E+02 -0.18260708563E+02  0.29580747127E+02  0.00000000000E+00 0. -1.
</event>
<event>
 5    1  0.1096978E-009  0.9118800E+02  0.7818608E-02  0.1130116E+00
         25   -1    0    0    0    0  0.00000000000E+00  0.00000000000E+00  0.99999998245E-14  0.12500000000E+03  0.12500000000E+03 0.  0.
        -11    1    3    3    0    0 -0.28936471644E+02 -0.60536100473E+01  0.25069416531E+02  0.38761336809E+02  0.51100000000E-03 0.  1.
         23    2    1    0    0    0  0.17893182728E+02 -0.22077349199E+02 -0.42154685374E+01  0.96271172826E+02  0.91884673404E+02 0.  0.
         11    1    3    3    0    0  0.46829654372E+02 -0.16023739151E+02 -0.29284885068E+02  0.57509836017E+02  0.51100000000E-03 0. -1.
         22    1    1    0    0    0 -0.17893182728E+02  0.22077349199E+02  0.42154685374E+01  0.28728827174E+02  0.00000000000E+00 0. -1.
</event>
<event>
 5    1  0.1096978E-009  0.9118800E+02  0.7818608E-02  0.1130116E+00
         25   -1    0    0    0    0  0.00000000000E+00  0.00000000000E+00  0.99999998245E-14  0.12500000000E+03  0.12500000000E+03 0.  0.
        -11    1    3    3    0    0  0.17127359832E+02 -0.54384045383E+02  0.47109178507E+01  0.57211568711E+02  0.51100000000E-03 0.  1.
         23    2    1    0    0    0  0.20824037658E+02 -0.10968994027E+02  0.56545764863E+01  0.10079393445E+03  0.97844180264E+02 0.  0.
         11    1    3    3    0    0  0.36966778262E+01  0.43415051357E+02  0.94365863561E+00  0.43582365736E+02  0.51100000000E-03 0. -1.
         22    1    1    0    0    0 -0.20824037658E+02  0.10968994027E+02 -0.56545764863E+01  0.24206065554E+02  0.00000000000E+00 0.  1.
</event>
<event>
 5    1  0.1096978E-009  0.9118800E+02  0.7818608E-02  0.1130116E+00
         25   -1    0    0    0    0  0.00000000000E+00  0.00000000000E+00  0.99999998245E-14  0.12500000000E+03  0.12500000000E+03 0.  0.
        -11    1    3    3    0    0 -0.43385583659E+02 -0.92432081388E+01  0.15999789556E+02  0.47156537535E+02  0.51100000000E-03 0. -1.
         23    2    1    0    0    0 -0.88768213844E+01 -0.26837695594E+02 -0.11312756501E+02  0.94552695976E+02  0.89516333671E+02 0.  0.
         11    1    3    3    0    0  0.34508762275E+02 -0.17594487455E+02 -0.27312546057E+02  0.47396158441E+02  0.51100000000E-03 0.  1.
         22    1    1    0    0    0  0.88768213844E+01  0.26837695594E+02  0.11312756501E+02  0.30447304024E+02  0.00000000000E+00 0. -1.
</event>
<event>
 5    1  0.1096978E-009  0.9118800E+02  0.7818608E-02  0.1130116E+00
         25   -1    0    0    0    0  0.00000000000E+00  0.00000000000E+00  0.99999998245E-14  0.12500000000E+03  0.12500000000E+03 0.  0.
        -11    1    3    3    0    0 -0.55104760354E+01  0.23143866620E+01 -0.18963218975E+02  0.19882791703E+02  0.51100000000E-03 0.  1.
         23    2    1    0    0    0  0.92162622880E+01  0.40543107836E+01  0.41581365676E+02  0.82216978859E+02  0.70208580065E+02 0.  0.
         11    1    3    3    0    0  0.14726738323E+02  0.17399241216E+01  0.60544584651E+02  0.62334187156E+02  0.51100000000E-03 0. -1.
         22    1    1    0    0    0 -0.92162622880E+01 -0.40543107836E+01 -0.41581365676E+02  0.42783021141E+02  0.00000000000E+00 0. -1.
</event>
<event>
 5    1  0.1096978E-009  0.9118800E+02  0.7818608E-02  0.1130116E+00
         25   -1    0    0    0    0  0.00000000000E+00  0.00000000000E+00  0.99999998245E-14  0.12500000000E+03  0.12500000000E+03 0.  0.
        -11    1    3    3    0    0  0.22733625401E+02 -0.80375153259E+01  0.18617908942E+02  0.30463845951E+02  0.51100000000E-03 0. -1.
         23    2    1    0    0    0 -0.33912687527E+02 -0.83842762740E+01  0.14224271412E+02  0.87281352607E+02  0.78710470407E+02 0.  0.
         11    1    3    3    0    0 -0.56646312929E+02 -0.34676094801E+00 -0.43936375297E+01  0.56817506656E+02  0.51100000000E-03 0.  1.
         22    1    1    0    0    0  0.33912687527E+02  0.83842762740E+01 -0.14224271412E+02  0.37718647393E+02  0.00000000000E+00 0.  1.
</event>
<event>
 5    1  0.1096978E-009  0.9118800E+02  0.7818608E-02  0.1130116E+00
         25   -1    0    0    0    0  0.00000000000E+00  0.00000000000E+00  0.99999998245E-14  0.12500000000E+03  0.12500000000E+03 0.  0.
        -11    1    3    3    0    0  0.39724249344E+02 -0.28738828021E+02  0.29971988117E+02  0.57465261628E+02  0.51100000000E-03 0.  1.
         23    2    1    0    0    0  0.24234138636E+02  0.29748538261E+01  0.17741592987E+02  0.94818758269E+02  0.89887093441E+02 0.  0.
         11    1    3    3    0    0 -0.15490110708E+02  0.31713681847E+02 -0.12230395130E+02  0.37353496641E+02  0.51100000000E-03 0. -1.
         22    1    1    0    0    0 -0.24234138636E+02 -0.29748538261E+01 -0.17741592987E+02  0.30181241731E+02  0.00000000000E+00 0.  1.
</event>
<event>
 5    1  0.1096978E-009  0.9118800E+02  0.7818608E-02  0.1130116E+00
         25   -1    0    0    0    0  0.00000000000E+00  0.00000000000E+00  0.99999998245E-14  0.12500000000E+03  0.12500000000E+03 0.  0.
        -11    1    3    3    0    0  0.13184077185E+02  0.11844468779E+02 -0.49159008619E+02  0.52256286326E+02  0.51100000000E-03 0. -1.
         23    2    1    0    0    0  0.27275310107E+02 -0.25142736493E+01 -0.10827140679E+02  0.95546798328E+02  0.90893891885E+02 0.  0.
         11    1    3    3    0    0  0.14091232922E+02 -0.14358742428E+02  0.38331867940E+02  0.43290512002E+02  0.51100000000E-03 0.  1.
         22    1    1    0    0    0 -0.27275310107E+02  0.25142736493E+01  0.10827140679E+02  0.29453201672E+02  0.00000000000E+00 0.  1.
</event>
<event>
 5    1  0.1096978E-009  0.9118800E+02  0.7818608E-02  0.1130116E+00
         25   -1    0    0    0    0  0.00000000000E+00  0.00000000000E+00  0.99999998245E-14  0.12500000000E+03  0.12500000000E+03 0.  0.
        -11    1    3    3    0    0 -0.58584753429E+02 -0.55684586550E+01 -0.16996881312E+02  0.61254183863E+02  0.51100000000E-03 0. -1.
         23    2    1    0    0    0 -0.25218529603E+02 -0.22491044297E+01 -0.16482365019E+02  0.94789057236E+02  0.89845780697E+02 0.  0.
         11    1    3    3    0    0  0.33366223826E+02  0.33193542254E+01  0.51451629365E+00  0.33534873373E+02  0.51100000000E-03 0.  1.
         22    1    1    0    0    0  0.25218529603E+02  0.22491044297E+01  0.16482365019E+02  0.30210942764E+02  0.00000000000E+00 0. -1.
</event>
<event>
 5    1  0.1096978E-009  0.9118800E+02  0.7818608E-02  0.1130116E+00
         25   -1    0    0    0    0  0.00000000000E+00  0.00000000000E+00  0.99999998245E-14  0.12500000000E+03  0.12500000000E+03 0.  0.
        -11    1    3    3    0    0  0.64926407161E+01 -0.27556106994E+02 -0.19899185606E+02  0.34604493988E+02  0.51100000000E-03 0.  1.
         23    2    1    0    0    0  0.55854814301E+00  0.82298492776E+01  0.28637200976E+02  0.95198461870E+02  0.90413580106E+02 0.  0.
         11    1    3    3    0    0 -0.59340925731E+01  0.35785956271E+02  0.48536386582E+02  0.60593967882E+02  0.51100000000E-03 0. -1.
         22    1    1    0    0    0 -0.55854814301E+00 -0.82298492776E+01 -0.28637200976E+02  0.29801538130E+02  0.00000000000E+00 0. -1.
</event>
<event>
 5    1  0.1096978E-009  0.9118800E+02  0.7818608E-02  0.1130116E+00
         25   -1    0    0    0    0  0.00000000000E+00  0.00000000000E+00  0.99999998245E-14  0.12500000000E+03  0.12500000000E+03 0.  0.
        -11    1    3    3    0    0 -0.45496215921E+02  0.18616137728E+02 -0.22092064513E+02  0.53893650477E+02  0.51100000000E-03 0. -1.
         23    2    1    0    0    0 -0.21353383112E+02  0.18396569774E+02  0.10903598502E+02  0.94779324792E+02  0.89832239191E+02 0.  0.
         11    1    3    3    0    0  0.24142832809E+02 -0.21956795398E+00  0.32995663015E+02  0.40885674315E+02  0.51100000000E-03 0.  1.
         22    1    1    0    0    0  0.21353383112E+02 -0.18396569774E+02 -0.10903598502E+02  0.30220675208E+02  0.00000000000E+00 0. -1.
</event>
<event>
 5    1  0.1096978E-009  0.9118800E+02  0.7818608E-02  0.1130116E+00
         25   -1    0    0    0    0  0.00000000000E+00  0.00000000000E+00  0.99999998245E-14  0.12500000000E+03  0.12500000000E+03 0.  0.
        -11    1    3    3    0    0  0.26275456114E+01 -0.28172169914E+02  0.18634554654E+02  0.33879518606E+02  0.51100000000E-03 0. -1.
         23    2    1    0    0    0 -0.60187022414E+01  0.25731329767E+02 -0.11435793372E+02  0.96205842984E+02  0.91795755598E+02 0.  0.
         11    1    3    3    0    0 -0.86462478529E+01  0.53903499681E+02 -0.30070348026E+02  0.62326324377E+02  0.51100000000E-03 0.  1.
         22    1    1    0    0    0  0.60187022414E+01 -0.25731329767E+02  0.11435793372E+02  0.28794157016E+02  0.00000000000E+00 0.  1.
</event>
<event>
 5    1  0.1096978E-009  0.9118800E+02  0.7818608E-02  0.1130116E+00
         25   -1    0    0    0    0  0.00000000000E+00  0.00000000000E+00  0.99999998245E-14  0.12500000000E+03  0.12500000000E+03 0.  0.
        -11    1    3    3    0    0  0.22040729554E+02 -0.27633692612E+02  0.27691762056E+01  0.35455367207E+02  0.51100000000E-03 0.  1.
         23    2    1    0    0    0 -0.23155151644E+02  0.13571182960E+02  0.84085961889E+01  0.96874521436E+02  0.92701835791E+02 0.  0.
         11    1    3    3    0    0 -0.45195881198E+02  0.41204875572E+02  0.56394199833E+01  0.61419154229E+02  0.51100000000E-03 0. -1.
         22    1    1    0    0    0  0.23155151644E+02 -0.13571182960E+02 -0.84085961889E+01  0.28125478564E+02  0.00000000000E+00 0. -1.
</event>
<event>
 5    1  0.1096978E-009  0.9118800E+02  0.7818608E-02  0.1130116E+00
         25   -1    0    0    0    0  0.00000000000E+00  0.00000000000E+00  0.99999998245E-14  0.12500000000E+03  0.12500000000E+03 0.  0.
        -11    1    3    3    0    0 -0.26415064769E+01  0.58503922090E+02  0.13975567779E+01  0.58580198204E+02  0.51100000000E-03 0. -1.
         23    2    1    0    0    0  0.12578497116E+02  0.25246774204E+02 -0.66285986676E+01  0.96024898314E+02  0.91549028278E+02 0.  0.
         11    1    3    3    0    0  0.15220003593E+02 -0.33257147886E+02 -0.80261554456E+01  0.37444700111E+02  0.51100000000E-03 0.  1.
         22    1    1    0    0    0 -0.12578497116E+02 -0.25246774204E+02  0.66285986676E+01  0.28975101686E+02  0.00000000000E+00 0. -1.
</event>
<event>
 5    1  0.1096978E-009  0.9118800E+02  0.7818608E-02  0.1130116E+00
         25   -1    0    0    0    0  0.00000000000E+00  0.00000000000E+00  0.99999998245E-14  0.12500000000E+03  0.12500000000E+03 0.  0.
        -11    1    3    3    0    0 -0.18730286655E+02  0.31967864655E+02  0.10603355096E+02  0.38538281596E+02  0.51100000000E-03 0. -1.
         23    2    1    0    0    0  0.22065971224E+02  0.86360153568E+01 -0.19468054089E+02  0.94332542047E+02  0.89208382519E+02 0.  0.
         11    1    3    3    0    0  0.40796257880E+02 -0.23331849299E+02 -0.30071409184E+02  0.55794260451E+02  0.51100000000E-03 0.  1.
         22    1    1    0    0    0 -0.22065971224E+02 -0.86360153568E+01  0.19468054089E+02  0.30667457953E+02  0.00000000000E+00 0.  1.
</event>
<event>
 5    1  0.1096978E-009  0.9118800E+02  0.7818608E-02  0.1130116E+00
         25   -1    0    0    0    0  0.00000000000E+00  0.00000000000E+00  0.99999998245E-14  0.12500000000E+03  0.12500000000E+03 0.  0.
        -11    1    3    3    0    0  0.27932597891E+02  0.32195897032E+02  0.45616991318E+02  0.62431688330E+02  0.51100000000E-03 0.  1.
         23    2    1    0    0    0  0.13501387128E+02  0.15000033982E+02  0.18639902220E+02  0.97527569664E+02  0.93578268930E+02 0.  0.
         11    1    3    3    0    0 -0.14431210763E+02 -0.17195863050E+02 -0.26977089098E+02  0.35095881334E+02  0.51100000000E-03 0. -1.
         22    1    1    0    0    0 -0.13501387128E+02 -0.15000033982E+02 -0.18639902220E+02  0.27472430336E+02  0.00000000000E+00 0.  1.
</event>
<event>
 5    1  0.1096978E-009  0.9118800E+02  0.7818608E-02  0.1130116E+00
         25   -1    0    0    0    0  0.00000000000E+00  0.00000000000E+00  0.99999998245E-14  0.12500000000E+03  0.12500000000E+03 0.  0.
        -11    1    3    3    0    0  0.20965330499E+02  0.37827042611E+02  0.24011020217E+02  0.49466749719E+02  0.51100000000E-03 0. -1.
         23    2    1    0    0    0  0.28149136529E+02 -0.31169989860E+01  0.17420747343E+01  0.96625286003E+02  0.92365153065E+02 0.  0.
         11    1    3    3    0    0  0.71838060301E+01 -0.40944041597E+02 -0.22268945483E+02  0.47158536285E+02  0.51100000000E-03 0.  1.
         22    1    1    0    0    0 -0.28149136529E+02  0.31169989860E+01 -0.17420747343E+01  0.28374713997E+02  0.00000000000E+00 0.  1.
</event>
<event>
 5    1  0.1096978E-009  0.9118800E+02  0.7818608E-02  0.1130116E+00
         25   -1    0    0    0    0  0.00000000000E+00  0.00000000000E+00  0.99999998245E-14  0.12500000000E+03  0.12500000000E+03 0.  0.
        -11    1    3    3    0    0  0.17096665487E+02 -0.25075032002E+02  0.17588415238E+02  0.35077137163E+02  0.51100000000E-03 0.  1.
         23    2    1    0    0    0 -0.14698666075E+02  0.11397752754E+02 -0.20986052139E+02  0.96957640317E+02  0.92813846377E+02 0.  0.
         11    1    3    3    0    0 -0.31795331561E+02  0.36472784756E+02 -0.38574467377E+02  0.61880503154E+02  0.51100000000E-03 0. -1.
         22    1    1    0    0    0  0.14698666075E+02 -0.11397752754E+02  0.20986052139E+02  0.28042359683E+02  0.00000000000E+00 0. -1.
</event>
<event>
 5    1  0.1096978E-009  0.9118800E+02  0.7818608E-02  0.1130116E+00
         25   -1    0    0    0    0  0.00000000000E+00  0.00000000000E+00  0.99999998245E-14  0.12500000000E+03  0.12500000000E+03 0.  0.
        -11    1    3    3    0    0 -0.48038994268E+02  0.81046116927E+01 -0.33055226331E+02  0.58873403919E+02  0.51100000000E-03 0.  1.
         23    2    1    0    0    0 -0.28554822930E+02 -0.49411356221E+01 -0.47424098198E+01  0.95635341230E+02  0.91015577279E+02 0.  0.
         11    1    3    3    0    0  0.19484171338E+02 -0.13045747315E+02  0.28312816512E+02  0.36761937310E+02  0.51100000000E-03 0. -1.
         22    1    1    0    0    0  0.28554822930E+02  0.49411356221E+01  0.47424098198E+01  0.29364658770E+02  0.00000000000E+00 0.  1.
</event>
<event>
 5    1  0.1096978E-009  0.9118800E+02  0.7818608E-02  0.1130116E+00
         25   -1    0    0    0    0  0.00000000000E+00  0.00000000000E+00  0.99999998245E-14  0.12500000000E+03  0.12500000000E+03 0.  0.
        -11    1    3    3    0    0  0.13653290491E+02 -0.33442596648E+02 -0.18456639010E+01  0.36169408169E+02  0.51100000000E-03 0.  1.
         23    2    1    0    0    0  0.21293678552E+00  0.25099450131E+02 -0.12152755698E+02  0.97112418355E+02  0.93022065064E+02 0.  0.
         11    1    3    3    0    0 -0.13440353705E+02  0.58542046780E+02 -0.10307091797E+02  0.60943010185E+02  0.51100000000E-03 0. -1.
         22    1    1    0    0    0 -0.21293678552E+00 -0.25099450131E+02  0.12152755698E+02  0.27887581645E+02  0.00000000000E+00 0. -1.
</event>
<event>
 5    1  0.1096978E-009  0.9118800E+02  0.7818608E-02  0.1130116E+00
         25   -1    0    0    0    0  0.00000000000E+00  0.00000000000E+00  0.99999998245E-14  0.12500000000E+03  0.12500000000E+03 0.  0.
        -11    1    3    3    0    0  0.26001157518E+02  0.32207118948E+02  0.63308862129E+01  0.41874082960E+02  0.51100000000E-03 0.  1.
         23    2    1    0    0    0  0.20166506449E+02 -0.19116318244E+02 -0.90615302848E+01  0.95772736415E+02  0.91204079425E+02 0.  0.
         11    1    3    3    0    0 -0.58346510690E+01 -0.51323437193E+02 -0.15392416498E+02  0.53898653455E+02  0.51100000000E-03 0. -1.
         22    1    1    0    0    0 -0.20166506449E+02  0.19116318244E+02  0.90615302848E+01  0.29227263585E+02  0.00000000000E+00 0. -1.
</event>
<event>
 5    1  0.1096978E-009  0.9118800E+02  0.7818608E-02  0.1130116E+00
         25   -1    0    0    0    0  0.00000000000E+00  0.00000000000E+00  0.99999998245E-14  0.12500000000E+03  0.12500000000E+03 0.  0.
        -11    1    3    3    0    0 -0.49432355053E+02 -0.30484831246E+02  0.13088098681E+02  0.59533024361E+02  0.51100000000E-03 0. -1.
         23    2    1    0    0    0 -0.15796507774E+02 -0.23541586407E+02  0.12836835733E+02  0.93878941213E+02  0.88570510348E+02 0.  0.
         11    1    3    3    0    0  0.33635847279E+02  0.69432448394E+01 -0.25126294854E+00  0.34345916852E+02  0.51100000000E-03 0.  1.
         22    1    1    0    0    0  0.15796507774E+02  0.23541586407E+02 -0.12836835733E+02  0.31121058787E+02  0.00000000000E+00 0. -1.
</event>
<event>
 5    1  0.1096978E-009  0.9118800E+02  0.7818608E-02  0.1130116E+00
         25   -1    0    0    0    0  0.00000000000E+00  0.00000000000E+00  0.99999998245E-14  0.12500000000E+03  0.12500000000E+03 0.  0.
        -11    1    3    3    0    0 -0.20698532605E+01  0.48433324524E+02 -0.35974575836E+02  0.60367551912E+02  0.51100000000E-03 0.  1.
         23    2    1    0    0    0 -0.12414436991E+02  0.21332743759E+02 -0.16080334721E+02  0.95541870955E+02  0.90887115362E+02 0.  0.
         11    1    3    3    0    0 -0.10344583730E+02 -0.27100580765E+02  0.19894241115E+02  0.35174319043E+02  0.51100000000E-03 0. -1.
         22    1    1    0    0    0  0.12414436991E+02 -0.21332743759E+02  0.16080334721E+02  0.29458129045E+02  0.00000000000E+00 0.  1.
</event>
<event>
 5    1  0.1096978E-009  0.9118800E+02  0.7818608E-02  0.1130116E+00
         25   -1    0    0    0    0  0.00000000000E+00  0.00000000000E+00  0.99999998245E-14  0.12500000000E+03  0.12500000000E+03 0.  0.
        -11    1    3    3    0    0  0.33676790503E+02  0.95742994505E+01  0.48396957829E+02  0.59733231588E+02  0.51100000000E-03 0.  1.
         23    2    1    0    0    0  0.47896530686E+01  0.10074219285E+02  0.27304384553E+02  0.95504914196E+02  0.90836273311E+02 0.  0.
         11    1    3    3    0    0 -0.28887137435E+02  0.49991983469E+00 -0.21092573275E+02  0.35771682609E+02  0.51100000000E-03 0. -1.
         22    1    1    0    0    0 -0.47896530686E+01 -0.10074219285E+02 -0.27304384553E+02  0.29495085804E+02  0.00000000000E+00 0.  1.
</event>
<event>
 5    1  0.1096978E-009  0.9118800E+02  0.7818608E-02  0.1130116E+00
         25   -1    0    0    0    0  0.00000000000E+00  0.00000000000E+00  0.99999998245E-14  0.12500000000E+03  0.12500000000E+03 0.  0.
        -11    1    3    3    0    0 -0.18829116384E+02 -0.32175222462E+02 -0.37359978107E+02  0.52778296000E+02  0.51100000000E-03 0.  1.
         23    2    1    0    0    0 -0.14022850757E+01  0.54327368301E+01 -0.29506039642E+02  0.94965230011E+02  0.90090551684E+02 0.  0.
         11    1    3    3    0    0  0.17426831309E+02  0.37607959292E+02  0.78539384646E+01  0.42186934011E+02  0.51100000000E-03 0. -1.
         22    1    1    0    0    0  0.14022850757E+01 -0.54327368301E+01  0.29506039642E+02  0.30034769989E+02  0.00000000000E+00 0. -1.
</event>
<event>
 5    1  0.1096978E-009  0.9118800E+02  0.7818608E-02  0.1130116E+00
         25   -1    0    0    0    0  0.00000000000E+00  0.00000000000E+00  0.99999998245E-14  0.12500000000E+03  0.12500000000E+03 0.  0.
        -11    1    3    3    0    0  0.54740236185E+02  0.27257430233E+01  0.14266878075E+02  0.56634503113E+02  0.51100000000E-03 0. -1.
         23    2    1    0    0    0  0.26353634944E+02  0.18204171771E+02 -0.21541826035E+01  0.92897874723E+02  0.87174931493E+02 0.  0.
         11    1    3    3    0    0 -0.28386601241E+02  0.15478428747E+02 -0.16421060678E+02  0.36263371610E+02  0.51100000000E-03 0.  1.
         22    1    1    0    0    0 -0.26353634944E+02 -0.18204171771E+02  0.21541826035E+01  0.32102125277E+02  0.00000000000E+00 0. -1.
</event>
<event>
 5    1  0.1096978E-009  0.9118800E+02  0.7818608E-02  0.1130116E+00
         25   -1    0    0    0    0  0.00000000000E+00  0.00000000000E+00  0.99999998245E-14  0.12500000000E+03  0.12500000000E+03 0.  0.
        -11    1    3    3    0    0 -0.28239616351E+02 -0.51889862413E+02  0.32465514507E+01  0.59165647546E+02  0.51100000000E-03 0.  1.
         23    2    1    0    0    0  0.61832172777E+00 -0.27728432222E+02  0.48818537495E+01  0.96838310219E+02  0.92652995390E+02 0.  0.
         11    1    3    3    0    0  0.28857938079E+02  0.24161430191E+02  0.16353022988E+01  0.37672662674E+02  0.51100000000E-03 0. -1.
         22    1    1    0    0    0 -0.61832172777E+00  0.27728432222E+02 -0.48818537495E+01  0.28161689781E+02  0.00000000000E+00 0.  1.
</event>
<event>
 5    1  0.1096978E-009  0.9118800E+02  0.7818608E-02  0.1130116E+00
         25   -1    0    0    0    0  0.00000000000E+00  0.00000000000E+00  0.99999998245E-14  0.12500000000E+03  0.12500000000E+03 0.  0.
        -11    1    3    3    0    0 -0.95244611267E+01  0.37673668521E+02  0.37756264662E+01  0.39041977602E+02  0.51100000000E-03 0.  1.
         23    2    1    0    0    0  0.25252597026E+02 -0.67116474249E+01  0.12387794672E+02  0.96082923306E+02  0.91628220688E+02 0.  0.
         11    1    3    3    0    0  0.34777058152E+02 -0.44385315946E+02  0.86121682059E+01  0.57040945704E+02  0.51100000000E-03 0. -1.
         22    1    1    0    0    0 -0.25252597026E+02  0.67116474249E+01 -0.12387794672E+02  0.28917076694E+02  0.00000000000E+00 0. -1.
</event>
<event>
 5    1  0.1096978E-009  0.9118800E+02  0.7818608E-02  0.1130116E+00
         25   -1    0    0    0    0  0.00000000000E+00  0.00000000000E+00  0.99999998245E-14  0.12500000000E+03  0.12500000000E+03 0.  0.
        -11    1    3    3    0    0 -0.39128900821E+02  0.84128483396E+01  0.19548119946E+02  0.44541844263E+02  0.51100000000E-03 0.  1.
         23    2    1    0    0    0 -0.12792174899E+02 -0.13552458161E+01 -0.24814296332E+02  0.97049584397E+02  0.92937592498E+02 0.  0.
         11    1    3    3    0    0  0.26336725922E+02 -0.97680941557E+01 -0.44362416278E+02  0.52507740134E+02  0.51100000000E-03 0. -1.
         22    1    1    0    0    0  0.12792174899E+02  0.13552458161E+01  0.24814296332E+02  0.27950415603E+02  0.00000000000E+00 0. -1.
</event>
<event>
 5    1  0.1096978E-009  0.9118800E+02  0.7818608E-02  0.1130116E+00
         25   -1    0    0    0    0  0.00000000000E+00  0.00000000000E+00  0.99999998245E-14  0.12500000000E+03  0.12500000000E+03 0.  0.
        -11    1    3    3    0    0 -0.12913931726E+02 -0.43636576079E+02 -0.25512102234E+02  0.52170755842E+02  0.51100000000E-03 0. -1.
         23    2    1    0    0    0 -0.26957620932E+02 -0.57706436781E+01 -0.72488380732E+01  0.96494574057E+02  0.92188087703E+02 0.  0.
         11    1    3    3    0    0 -0.14043689206E+02  0.37865932400E+02  0.18263264161E+02  0.44323818215E+02  0.51100000000E-03 0.  1.
         22    1    1    0    0    0  0.26957620932E+02  0.57706436781E+01  0.72488380732E+01  0.28505425943E+02  0.00000000000E+00 0. -1.
</event>
<event>
 5    1  0.1096978E-009  0.9118800E+02  0.7818608E-02  0.1130116E+00
         25   -1    0    0    0    0  0.00000000000E+00  0.00000000000E+00  0.99999998245E-14  0.12500000000E+03  0.12500000000E+03 0.  0.
        -11    1    3    3    0    0  0.39848949236E+02  0.83601622001E+01 -0.24885544256E+02  0.47719192998E+02  0.51100000000E-03 0.  1.
         23    2    1    0    0    0  0.19018851011E+02 -0.21123777032E+02  0.68241985093E+01  0.95768162302E+02  0.91197810147E+02 0.  0.
         11    1    3    3    0    0 -0.20830098224E+02 -0.29483939232E+02  0.31709742765E+02  0.48048969304E+02  0.51100000000E-03 0. -1.
         22    1    1    0    0    0 -0.19018851011E+02  0.21123777032E+02 -0.68241985093E+01  0.29231837698E+02  0.00000000000E+00 0.  1.
</event>
<event>
 5    1  0.1096978E-009  0.9118800E+02  0.7818608E-02  0.1130116E+00
         25   -1    0    0    0    0  0.00000000000E+00  0.00000000000E+00  0.99999998245E-14  0.12500000000E+03  0.12500000000E+03 0.  0.
        -11    1    3    3    0    0 -0.22191100838E+02  0.28628414549E+02 -0.51980060010E+01  0.36593036805E+02  0.51100000000E-03 0.  1.
         23    2    1    0    0    0  0.21148232735E+01 -0.23538727288E+02  0.14322753223E+02  0.97365141222E+02  0.93361048117E+02 0.  0.
         11    1    3    3    0    0  0.24305924111E+02 -0.52167141837E+02  0.19520759224E+02  0.60772104417E+02  0.51100000000E-03 0. -1.
         22    1    1    0    0    0 -0.21148232735E+01  0.23538727288E+02 -0.14322753223E+02  0.27634858778E+02  0.00000000000E+00 0. -1.
</event>
<event>
 5    1  0.1096978E-009  0.9118800E+02  0.7818608E-02  0.1130116E+00
         25   -1    0    0    0    0  0.00000000000E+00  0.00000000000E+00  0.99999998245E-14  0.12500000000E+03  0.12500000000E+03 0.  0.
        -11    1    3    3    0    0  0.24077414996E+02 -0.52064473002E+02  0.21823810417E+01  0.57403780791E+02  0.51100000000E-03 0.  1.
         23    2    1    0    0    0  0.77907030933E+01 -0.22368603039E+02 -0.16546810953E+02  0.96106291180E+02  0.91660093798E+02 0.  0.
         11    1    3    3    0    0 -0.16286711902E+02  0.29695869962E+02 -0.18729191995E+02  0.38702510390E+02  0.51100000000E-03 0. -1.
         22    1    1    0    0    0 -0.77907030933E+01  0.22368603039E+02  0.16546810953E+02  0.28893708820E+02  0.00000000000E+00 0.  1.
</event>
<event>
 5    1  0.1096978E-009  0.9118800E+02  0.7818608E-02  0.1130116E+00
         25   -1    0    0    0    0  0.00000000000E+00  0.00000000000E+00  0.99999998245E-14  0.12500000000E+03  0.12500000000E+03 0.  0.
        -11    1    3    3    0    0  0.50062232823E+02 -0.48693433108E+01  0.28989392562E+02  0.58054479076E+02  0.51100000000E-03 0.  1.
         23    2    1    0    0    0  0.19848047390E+02 -0.14084042819E+02  0.25361404834E+02  0.89850233252E+02  0.82689529645E+02 0.  0.
         11    1    3    3    0    0 -0.30214185432E+02 -0.92146995077E+01 -0.36279877277E+01  0.31795754175E+02  0.51100000000E-03 0. -1.
         22    1    1    0    0    0 -0.19848047390E+02  0.14084042819E+02 -0.25361404834E+02  0.35149766748E+02  0.00000000000E+00 0.  1.
</event>
<event>
 5    1  0.1096978E-009  0.9118800E+02  0.7818608E-02  0.1130116E+00
         25   -1    0    0    0    0  0.00000000000E+00  0.00000000000E+00  0.99999998245E-14  0.12500000000E+03  0.12500000000E+03 0.  0.
        -11    1    3    3    0    0 -0.33540129784E+02 -0.12214621427E+02  0.48413898392E+02  0.60150169079E+02  0.51100000000E-03 0. -1.
         23    2    1    0    0    0 -0.70568629355E+01 -0.12057326706E+02  0.28413690341E+02  0.93337463137E+02  0.87802994165E+02 0.  0.
         11    1    3    3    0    0  0.26483266848E+02  0.15729472121E+00 -0.20000208050E+02  0.33187294058E+02  0.51100000000E-03 0.  1.
         22    1    1    0    0    0  0.70568629355E+01  0.12057326706E+02 -0.28413690341E+02  0.31662536863E+02  0.00000000000E+00 0. -1.
</event>
<event>
 5    1  0.1096978E-009  0.9118800E+02  0.7818608E-02  0.1130116E+00
         25   -1    0    0    0    0  0.00000000000E+00  0.00000000000E+00  0.99999998245E-14  0.12500000000E+03  0.12500000000E+03 0.  0.
        -11    1    3    3    0    0 -0.32953379965E+01  0.32881996666E+02 -0.13206245067E+02  0.35587776922E+02  0.51100000000E-03 0. -1.
         23    2    1    0    0    0 -0.10408412682E+01 -0.14597450033E+02  0.24636223194E+02  0.96344941262E+02  0.91984973314E+02 0.  0.
         11    1    3    3    0    0  0.22544967284E+01 -0.47479446699E+02  0.37842468261E+02  0.60757164340E+02  0.51100000000E-03 0.  1.
         22    1    1    0    0    0  0.10408412682E+01  0.14597450033E+02 -0.24636223194E+02  0.28655058738E+02  0.00000000000E+00 0.  1.
</event>
<event>
 5    1  0.1096978E-009  0.9118800E+02  0.7818608E-02  0.1130116E+00
         25   -1    0    0    0    0  0.00000000000E+00  0.00000000000E+00  0.99999998245E-14  0.12500000000E+03  0.12500000000E+03 0.  0.
        -11    1    3    3    0    0  0.46916797373E+02 -0.26356931344E+02 -0.17989511835E+02  0.56740604878E+02  0.51100000000E-03 0.  1.
         23    2    1    0    0    0  0.16115113923E+02 -0.46725269887E+01 -0.24836619087E+02  0.95026894507E+02  0.90176070145E+02 0.  0.
         11    1    3    3    0    0 -0.30801683450E+02  0.21684404355E+02 -0.68471072518E+01  0.38286289629E+02  0.51100000000E-03 0. -1.
         22    1    1    0    0    0 -0.16115113923E+02  0.46725269887E+01  0.24836619087E+02  0.29973105493E+02  0.00000000000E+00 0.  1.
</event>
<event>
 5    1  0.1096978E-009  0.9118800E+02  0.7818608E-02  0.1130116E+00
         25   -1    0    0    0    0  0.00000000000E+00  0.00000000000E+00  0.99999998245E-14  0.12500000000E+03  0.12500000000E+03 0.  0.
        -11    1    3    3    0    0 -0.29336567094E+02  0.32737917566E+02 -0.77551634396E+01  0.44637965631E+02  0.51100000000E-03 0.  1.
         23    2    1    0    0    0 -0.15118735199E+02 -0.76373883015E+01  0.22340347103E+02  0.96964362629E+02  0.92822899423E+02 0.  0.
         11    1    3    3    0    0  0.14217831895E+02 -0.40375305868E+02  0.30095510543E+02  0.52326396998E+02  0.51100000000E-03 0. -1.
         22    1    1    0    0    0  0.15118735199E+02  0.76373883015E+01 -0.22340347103E+02  0.28035637371E+02  0.00000000000E+00 0. -1.
</event>
<event>
 5    1  0.1096978E-009  0.9118800E+02  0.7818608E-02  0.1130116E+00
         25   -1    0    0    0    0  0.00000000000E+00  0.00000000000E+00  0.99999998245E-14  0.12500000000E+03  0.12500000000E+03 0.  0.
        -11    1    3    3    0    0  0.25081113711E+02  0.10249179880E+02  0.47805064473E+02  0.54949359803E+02  0.51100000000E-03 0. -1.
         23    2    1    0    0    0  0.22479167113E+02 -0.11292423253E+02  0.11286083158E+02  0.97428140250E+02  0.93445358700E+02 0.  0.
         11    1    3    3    0    0 -0.26019465984E+01 -0.21541603134E+02 -0.36518981316E+02  0.42478780447E+02  0.51100000000E-03 0.  1.
         22    1    1    0    0    0 -0.22479167113E+02  0.11292423253E+02 -0.11286083158E+02  0.27571859750E+02  0.00000000000E+00 0. -1.
</event>
<event>
 5    1  0.1096978E-009  0.9118800E+02  0.7818608E-02  0.1130116E+00
         25   -1    0    0    0    0  0.00000000000E+00  0.00000000000E+00  0.99999998245E-14  0.12500000000E+03  0.12500000000E+03 0.  0.
        -11    1    3    3    0    0  0.13918777422E+02  0.41694332438E+02  0.44422714123E+02  0.62494217754E+02  0.51100000000E-03 0. -1.
         23    2    1    0    0    0  0.61038935463E+01  0.20033027105E+02  0.20827554253E+02  0.95464145390E+02  0.90780153929E+02 0.  0.
         11    1    3    3    0    0 -0.78148838759E+01 -0.21661305333E+02 -0.23595159870E+02  0.32969927635E+02  0.51100000000E-03 0.  1.
         22    1    1    0    0    0 -0.61038935463E+01 -0.20033027105E+02 -0.20827554253E+02  0.29535854610E+02  0.00000000000E+00 0. -1.
</event>
<event>
 5    1  0.1096978E-009  0.9118800E+02  0.7818608E-02  0.1130116E+00
         25   -1    0    0    0    0  0.00000000000E+00  0.00000000000E+00  0.99999998245E-14  0.12500000000E+03  0.12500000000E+03 0.  0.
        -11    1    3    3    0    0 -0.30188700522E+02 -0.36790091186E+01  0.46658642333E+02  0.55694897899E+02  0.51100000000E-03 0. -1.
         23    2    1    0    0    0 -0.70574121564E+01 -0.21048279779E+02  0.17928403879E+02  0.96464674285E+02  0.92147536979E+02 0.  0.
         11    1    3    3    0    0  0.23131288365E+02 -0.17369270660E+02 -0.28730238455E+02  0.40769776387E+02  0.51100000000E-03 0.  1.
         22    1    1    0    0    0  0.70574121564E+01  0.21048279779E+02 -0.17928403879E+02  0.28535325715E+02  0.00000000000E+00 0. -1.
</event>
<event>
 5    1  0.1096978E-009  0.9118800E+02  0.7818608E-02  0.1130116E+00
         25   -1    0    0    0    0  0.00000000000E+00  0.00000000000E+00  0.99999998245E-14  0.12500000000E+03  0.12500000000E+03 0.  0.
        -11    1    3    3    0    0  0.29071445055E+01  0.20070527895E+02  0.29709734077E+02  0.35971459219E+02  0.51100000000E-03 0. -1.
         23    2    1    0    0    0 -0.20738917758E+02  0.89194352184E+01 -0.21724920759E+02  0.93669005500E+02  0.88273729812E+02 0.  0.
         11    1    3    3    0    0 -0.23646062264E+02 -0.11151092676E+02 -0.51434654836E+02  0.57697546281E+02  0.51100000000E-03 0.  1.
         22    1    1    0    0    0  0.20738917758E+02 -0.89194352184E+01  0.21724920759E+02  0.31330994500E+02  0.00000000000E+00 0.  1.
</event>
<event>
 5    1  0.1096978E-009  0.9118800E+02  0.7818608E-02  0.1130116E+00
         25   -1    0    0    0    0  0.00000000000E+00  0.00000000000E+00  0.99999998245E-14  0.12500000000E+03  0.12500000000E+03 0.  0.
        -11    1    3    3    0    0 -0.42958367694E+02 -0.24556308544E+02 -0.27887665408E+02  0.56799256390E+02  0.51100000000E-03 0. -1.
         23    2    1    0    0    0 -0.26004408597E+02 -0.20809318629E+02  0.22904209392E+01  0.91615826559E+02  0.85316801626E+02 0.  0.
         11    1    3    3    0    0  0.16953959097E+02  0.37469899154E+01  0.30178086347E+02  0.34816570169E+02  0.51100000000E-03 0.  1.
         22    1    1    0    0    0  0.26004408597E+02  0.20809318629E+02 -0.22904209392E+01  0.33384173441E+02  0.00000000000E+00 0. -1.
</event>
<event>
 5    1  0.1096978E-009  0.9118800E+02  0.7818608E-02  0.1130116E+00
         25   -1    0    0    0    0  0.00000000000E+00  0.00000000000E+00  0.99999998245E-14  0.12500000000E+03  0.12500000000E+03 0.  0.
        -11    1    3    3    0    0  0.34723114318E+02 -0.24907400135E+02 -0.26220590455E+01  0.42812947147E+02  0.51100000000E-03 0.  1.
         23    2    1    0    0    0  0.10891625708E+02  0.14253212346E+02  0.23391949781E+02  0.95521789619E+02  0.90859492650E+02 0.  0.
         11    1    3    3    0    0 -0.23831488610E+02  0.39160612481E+02  0.26014008826E+02  0.52708842472E+02  0.51100000000E-03 0. -1.
         22    1    1    0    0    0 -0.10891625708E+02 -0.14253212346E+02 -0.23391949781E+02  0.29478210381E+02  0.00000000000E+00 0. -1.
</event>
<event>
 5    1  0.1096978E-009  0.9118800E+02  0.7818608E-02  0.1130116E+00
         25   -1    0    0    0    0  0.00000000000E+00  0.00000000000E+00  0.99999998245E-14  0.12500000000E+03  0.12500000000E+03 0.  0.
        -11    1    3    3    0    0 -0.58752672541E+02 -0.14187602870E+02 -0.53516439611E+01  0.60677876523E+02  0.51100000000E-03 0.  1.
         23    2    1    0    0    0 -0.31489697613E+02 -0.12653843729E+02  0.65018469207E+01  0.90445769719E+02  0.83584941406E+02 0.  0.
         11    1    3    3    0    0  0.27262974928E+02  0.15337591402E+01  0.11853490882E+02  0.29767893197E+02  0.51100000000E-03 0. -1.
         22    1    1    0    0    0  0.31489697613E+02  0.12653843729E+02 -0.65018469207E+01  0.34554230281E+02  0.00000000000E+00 0.  1.
</event>
<event>
 5    1  0.1096978E-009  0.9118800E+02  0.7818608E-02  0.1130116E+00
         25   -1    0    0    0    0  0.00000000000E+00  0.00000000000E+00  0.99999998245E-14  0.12500000000E+03  0.12500000000E+03 0.  0.
        -11    1    3    3    0    0  0.14032792508E+02  0.20851766729E+02  0.33236178084E+02  0.41669640929E+02  0.51100000000E-03 0. -1.
         23    2    1    0    0    0 -0.50158525842E+01 -0.25514707258E+02  0.14805388503E+02  0.95077456787E+02  0.90246131201E+02 0.  0.
         11    1    3    3    0    0 -0.19048645092E+02 -0.46366473987E+02 -0.18430789581E+02  0.53407815857E+02  0.51100000000E-03 0.  1.
         22    1    1    0    0    0  0.50158525842E+01  0.25514707258E+02 -0.14805388503E+02  0.29922543213E+02  0.00000000000E+00 0.  1.
</event>
<event>
 5    1  0.1096978E-009  0.9118800E+02  0.7818608E-02  0.1130116E+00
         25   -1    0    0    0    0  0.00000000000E+00  0.00000000000E+00  0.99999998245E-14  0.12500000000E+03  0.12500000000E+03 0.  0.
        -11    1    3    3    0    0  0.32789021400E+02 -0.13045347329E+02  0.11811986763E+02  0.37213224032E+02  0.51100000000E-03 0. -1.
         23    2    1    0    0    0 -0.21551548072E+02 -0.18028834099E+02 -0.88170067190E+01  0.95550930562E+02  0.90899574480E+02 0.  0.
         11    1    3    3    0    0 -0.54340569472E+02 -0.49834867702E+01 -0.20628993482E+02  0.58337706530E+02  0.51100000000E-03 0.  1.
         22    1    1    0    0    0  0.21551548072E+02  0.18028834099E+02  0.88170067190E+01  0.29449069438E+02  0.00000000000E+00 0.  1.
</event>
<event>
 5    1  0.1096978E-009  0.9118800E+02  0.7818608E-02  0.1130116E+00
         25   -1    0    0    0    0  0.00000000000E+00  0.00000000000E+00  0.99999998245E-14  0.12500000000E+03  0.12500000000E+03 0.  0.
        -11    1    3    3    0    0  0.20197366068E+02  0.14123154910E+02 -0.53415290022E+02  0.58826782243E+02  0.51100000000E-03 0.  1.
         23    2    1    0    0    0  0.22879055760E+02  0.85886964601E+01 -0.18318075812E+02  0.94458736097E+02  0.89385032439E+02 0.  0.
         11    1    3    3    0    0  0.26816896913E+01 -0.55344584495E+01  0.35097214209E+02  0.35631953854E+02  0.51100000000E-03 0. -1.
         22    1    1    0    0    0 -0.22879055760E+02 -0.85886964601E+01  0.18318075812E+02  0.30541263903E+02  0.00000000000E+00 0.  1.
</event>
<event>
 5    1  0.1096978E-009  0.9118800E+02  0.7818608E-02  0.1130116E+00
         25   -1    0    0    0    0  0.00000000000E+00  0.00000000000E+00  0.99999998245E-14  0.12500000000E+03  0.12500000000E+03 0.  0.
        -11    1    3    3    0    0 -0.30829225757E+02 -0.22880612445E+02 -0.42457134237E+02  0.57241347246E+02  0.51100000000E-03 0.  1.
         23    2    1    0    0    0 -0.15831131469E+01 -0.23401794294E+02 -0.16817293479E+02  0.96138752914E+02  0.91704352287E+02 0.  0.
         11    1    3    3    0    0  0.29246112610E+02 -0.52118184895E+00  0.25639840758E+02  0.38897405668E+02  0.51100000000E-03 0. -1.
         22    1    1    0    0    0  0.15831131469E+01  0.23401794294E+02  0.16817293479E+02  0.28861247086E+02  0.00000000000E+00 0.  1.
</event>
<event>
 5    1  0.1096978E-009  0.9118800E+02  0.7818608E-02  0.1130116E+00
         25   -1    0    0    0    0  0.00000000000E+00  0.00000000000E+00  0.99999998245E-14  0.12500000000E+03  0.12500000000E+03 0.  0.
        -11    1    3    3    0    0 -0.29536701400E+00  0.12474944123E+02 -0.39351263030E+02  0.41282361546E+02  0.51100000000E-03 0.  1.
         23    2    1    0    0    0  0.14489910086E+02 -0.26427289909E+02 -0.68361500721E+01  0.94095435709E+02  0.88875524905E+02 0.  0.
         11    1    3    3    0    0  0.14785277100E+02 -0.38902234032E+02  0.32515112958E+02  0.52813074163E+02  0.51100000000E-03 0. -1.
         22    1    1    0    0    0 -0.14489910086E+02  0.26427289909E+02  0.68361500721E+01  0.30904564291E+02  0.00000000000E+00 0. -1.
</event>
<event>
 5    1  0.1096978E-009  0.9118800E+02  0.7818608E-02  0.1130116E+00
         25   -1    0    0    0    0  0.00000000000E+00  0.00000000000E+00  0.99999998245E-14  0.12500000000E+03  0.12500000000E+03 0.  0.
        -11    1    3    3    0    0 -0.21333387200E+02  0.38497380597E+02 -0.41713016277E+02  0.60639405088E+02  0.51100000000E-03 0.  1.
         23    2    1    0    0    0  0.13021335777E+00  0.21763069680E+02 -0.17352456294E+02  0.97165562753E+02  0.93093451371E+02 0.  0.
         11    1    3    3    0    0  0.21463600558E+02 -0.16734310917E+02  0.24360559983E+02  0.36526157664E+02  0.51100000000E-03 0. -1.
         22    1    1    0    0    0 -0.13021335777E+00 -0.21763069680E+02  0.17352456294E+02  0.27834437247E+02  0.00000000000E+00 0.  1.
</event>
<event>
 5    1  0.1096978E-009  0.9118800E+02  0.7818608E-02  0.1130116E+00
         25   -1    0    0    0    0  0.00000000000E+00  0.00000000000E+00  0.99999998245E-14  0.12500000000E+03  0.12500000000E+03 0.  0.
        -11    1    3    3    0    0 -0.31501393237E+01 -0.10459892303E+02 -0.42563120019E+02  0.43942597907E+02  0.51100000000E-03 0.  1.
         23    2    1    0    0    0  0.87368429000E+00  0.28025644603E+02 -0.79609506962E+01  0.95852498981E+02  0.91313332790E+02 0.  0.
         11    1    3    3    0    0  0.40238236137E+01  0.38485536906E+02  0.34602169323E+02  0.51909901074E+02  0.51100000000E-03 0. -1.
         22    1    1    0    0    0 -0.87368429000E+00 -0.28025644603E+02  0.79609506962E+01  0.29147501019E+02  0.00000000000E+00 0. -1.
</event>
<event>
 5    1  0.1096978E-009  0.9118800E+02  0.7818608E-02  0.1130116E+00
         25   -1    0    0    0    0  0.00000000000E+00  0.00000000000E+00  0.99999998245E-14  0.12500000000E+03  0.12500000000E+03 0.  0.
        -11    1    3    3    0    0  0.52007914275E+02  0.28737269003E+02  0.12158325240E+02  0.60650462899E+02  0.51100000000E-03 0. -1.
         23    2    1    0    0    0  0.27323637716E+02  0.46306953421E+01  0.11032189604E+02  0.95171595335E+02  0.90376428530E+02 0.  0.
         11    1    3    3    0    0 -0.24684276559E+02 -0.24106573661E+02 -0.11261356355E+01  0.34521132436E+02  0.51100000000E-03 0.  1.
         22    1    1    0    0    0 -0.27323637716E+02 -0.46306953421E+01 -0.11032189604E+02  0.29828404665E+02  0.00000000000E+00 0. -1.
</event>
<event>
 5    1  0.1096978E-009  0.9118800E+02  0.7818608E-02  0.1130116E+00
         25   -1    0    0    0    0  0.00000000000E+00  0.00000000000E+00  0.99999998245E-14  0.12500000000E+03  0.12500000000E+03 0.  0.
        -11    1    3    3    0    0 -0.56732746158E+01 -0.38433758654E+02  0.20031495409E+02  0.43710418183E+02  0.51100000000E-03 0.  1.
         23    2    1    0    0    0 -0.26953235683E+02  0.73131356017E+01  0.32418466416E+01  0.96884729491E+02  0.92715599404E+02 0.  0.
         11    1    3    3    0    0 -0.21279961067E+02  0.45746894256E+02 -0.16789648767E+02  0.53174311308E+02  0.51100000000E-03 0. -1.
         22    1    1    0    0    0  0.26953235683E+02 -0.73131356017E+01 -0.32418466416E+01  0.28115270509E+02  0.00000000000E+00 0. -1.
</event>
<event>
 5    1  0.1096978E-009  0.9118800E+02  0.7818608E-02  0.1130116E+00
         25   -1    0    0    0    0  0.00000000000E+00  0.00000000000E+00  0.99999998245E-14  0.12500000000E+03  0.12500000000E+03 0.  0.
        -11    1    3    3    0    0  0.31985924540E+02  0.41221910023E+02 -0.31385865384E+02  0.60888568556E+02  0.51100000000E-03 0.  1.
         23    2    1    0    0    0  0.83771021679E+01  0.24482606179E+02 -0.85698387094E+01  0.97741680507E+02  0.93863838228E+02 0.  0.
         11    1    3    3    0    0 -0.23608822372E+02 -0.16739303844E+02  0.22816026675E+02  0.36853111951E+02  0.51100000000E-03 0. -1.
         22    1    1    0    0    0 -0.83771021679E+01 -0.24482606179E+02  0.85698387094E+01  0.27258319493E+02  0.00000000000E+00 0.  1.
</event>
<event>
 5    1  0.1096978E-009  0.9118800E+02  0.7818608E-02  0.1130116E+00
         25   -1    0    0    0    0  0.00000000000E+00  0.00000000000E+00  0.99999998245E-14  0.12500000000E+03  0.12500000000E+03 0.  0.
        -11    1    3    3    0    0 -0.27718156217E+02 -0.12389859023E+02 -0.20806385103E+02  0.36806391456E+02  0.51100000000E-03 0.  1.
         23    2    1    0    0    0  0.26535064050E+02  0.75621590518E+01 -0.32595534056E+01  0.97216541575E+02  0.93161877363E+02 0.  0.
         11    1    3    3    0    0  0.54253220267E+02  0.19952018075E+02  0.17546831697E+02  0.60410150119E+02  0.51100000000E-03 0. -1.
         22    1    1    0    0    0 -0.26535064050E+02 -0.75621590518E+01  0.32595534056E+01  0.27783458425E+02  0.00000000000E+00 0. -1.
</event>
<event>
 5    1  0.1096978E-009  0.9118800E+02  0.7818608E-02  0.1130116E+00
         25   -1    0    0    0    0  0.00000000000E+00  0.00000000000E+00  0.99999998245E-14  0.12500000000E+03  0.12500000000E+03 0.  0.
        -11    1    3    3    0    0  0.52721896186E+02  0.36430321520E+00 -0.15150876664E+02  0.54856905839E+02  0.51100000000E-03 0. -1.
         23    2    1    0    0    0  0.13690680851E+02  0.55911590535E+01 -0.25453847789E+02  0.95562028449E+02  0.90914834391E+02 0.  0.
         11    1    3    3    0    0 -0.39031215335E+02  0.52268558383E+01 -0.10302971125E+02  0.40705122610E+02  0.51100000000E-03 0.  1.
         22    1    1    0    0    0 -0.13690680851E+02 -0.55911590535E+01  0.25453847789E+02  0.29437971551E+02  0.00000000000E+00 0. -1.
</event>
<event>
 5    1  0.1096978E-009  0.9118800E+02  0.7818608E-02  0.1130116E+00
         25   -1    0    0    0    0  0.00000000000E+00  0.00000000000E+00  0.99999998245E-14  0.12500000000E+03  0.12500000000E+03 0.  0.
        -11    1    3    3    0    0 -0.12136695885E+02  0.38257090057E+02  0.52354677059E+01  0.40476097255E+02  0.51100000000E-03 0.  1.
         23    2    1    0    0    0 -0.19321107997E+02 -0.76264454596E+01 -0.22345520305E+02  0.94491146166E+02  0.89430344635E+02 0.  0.
         11    1    3    3    0    0 -0.71844121120E+01 -0.45883535517E+02 -0.27580988011E+02  0.54015048911E+02  0.51100000000E-03 0. -1.
         22    1    1    0    0    0  0.19321107997E+02  0.76264454596E+01  0.22345520305E+02  0.30508853834E+02  0.00000000000E+00 0. -1.
</event>
<event>
 5    1  0.1096978E-009  0.9118800E+02  0.7818608E-02  0.1130116E+00
         25   -1    0    0    0    0  0.00000000000E+00  0.00000000000E+00  0.99999998245E-14  0.12500000000E+03  0.12500000000E+03 0.  0.
        -11    1    3    3    0    0 -0.26931362562E+02  0.24992125295E+02 -0.28103821093E+02  0.46257208914E+02  0.51100000000E-03 0. -1.
         23    2    1    0    0    0 -0.26348301256E+02 -0.83921067739E+01  0.87587899428E+01  0.95993503548E+02  0.91506152181E+02 0.  0.
         11    1    3    3    0    0  0.58306130608E+00 -0.33384232069E+02  0.36862611035E+02  0.49736294634E+02  0.51100000000E-03 0.  1.
         22    1    1    0    0    0  0.26348301256E+02  0.83921067739E+01 -0.87587899428E+01  0.29006496452E+02  0.00000000000E+00 0. -1.
</event>
<event>
 5    1  0.1096978E-009  0.9118800E+02  0.7818608E-02  0.1130116E+00
         25   -1    0    0    0    0  0.00000000000E+00  0.00000000000E+00  0.99999998245E-14  0.12500000000E+03  0.12500000000E+03 0.  0.
        -11    1    3    3    0    0  0.19820153064E+02 -0.17603726256E+02  0.22853786411E+02  0.35000359986E+02  0.51100000000E-03 0. -1.
         23    2    1    0    0    0 -0.15537368128E+02  0.25872914634E+02  0.21422724910E+01  0.94744308776E+02  0.89783501792E+02 0.  0.
         11    1    3    3    0    0 -0.35357521192E+02  0.43476640890E+02 -0.20711513920E+02  0.59743948790E+02  0.51100000000E-03 0.  1.
         22    1    1    0    0    0  0.15537368128E+02 -0.25872914634E+02 -0.21422724910E+01  0.30255691224E+02  0.00000000000E+00 0.  1.
</event>
<event>
 5    1  0.1096978E-009  0.9118800E+02  0.7818608E-02  0.1130116E+00
         25   -1    0    0    0    0  0.00000000000E+00  0.00000000000E+00  0.99999998245E-14  0.12500000000E+03  0.12500000000E+03 0.  0.
        -11    1    3    3    0    0  0.50395683669E+02  0.57071027811E+01  0.77678999171E+01  0.51309221627E+02  0.51100000000E-03 0.  1.
         23    2    1    0    0    0  0.14667976173E+02  0.11367430735E+02 -0.20596159421E+02  0.97276908733E+02  0.93242839850E+02 0.  0.
         11    1    3    3    0    0 -0.35727707496E+02  0.56603279543E+01 -0.28364059338E+02  0.45967687106E+02  0.51100000000E-03 0. -1.
         22    1    1    0    0    0 -0.14667976173E+02 -0.11367430735E+02  0.20596159421E+02  0.27723091267E+02  0.00000000000E+00 0.  1.
</event>
<event>
 5    1  0.1096978E-009  0.9118800E+02  0.7818608E-02  0.1130116E+00
         25   -1    0    0    0    0  0.00000000000E+00  0.00000000000E+00  0.99999998245E-14  0.12500000000E+03  0.12500000000E+03 0.  0.
        -11    1    3    3    0    0  0.69416236362E+01 -0.24975519872E+02 -0.20715738467E+02  0.33182895475E+02  0.51100000000E-03 0. -1.
         23    2    1    0    0    0  0.35657564748E+01  0.26808472632E+02  0.12923697347E+02  0.95026165124E+02  0.90175059084E+02 0.  0.
         11    1    3    3    0    0 -0.33758671614E+01  0.51783992504E+02  0.33639435814E+02  0.61843269649E+02  0.51100000000E-03 0.  1.
         22    1    1    0    0    0 -0.35657564748E+01 -0.26808472632E+02 -0.12923697347E+02  0.29973834876E+02  0.00000000000E+00 0.  1.
</event>
<event>
 5    1  0.1096978E-009  0.9118800E+02  0.7818608E-02  0.1130116E+00
         25   -1    0    0    0    0  0.00000000000E+00  0.00000000000E+00  0.99999998245E-14  0.12500000000E+03  0.12500000000E+03 0.  0.
        -11    1    3    3    0    0 -0.30038492957E+02  0.15233727499E+01 -0.20045481256E+02  0.36144889579E+02  0.51100000000E-03 0. -1.
         23    2    1    0    0    0  0.25952964670E+02  0.10923967707E+02  0.13293422819E+01  0.96810345930E+02  0.92615260528E+02 0.  0.
         11    1    3    3    0    0  0.55991457627E+02  0.94005949576E+01  0.21374823538E+02  0.60665456351E+02  0.51100000000E-03 0.  1.
         22    1    1    0    0    0 -0.25952964670E+02 -0.10923967707E+02 -0.13293422819E+01  0.28189654070E+02  0.00000000000E+00 0.  1.
</event>
<event>
 5    1  0.1096978E-009  0.9118800E+02  0.7818608E-02  0.1130116E+00
         25   -1    0    0    0    0  0.00000000000E+00  0.00000000000E+00  0.99999998245E-14  0.12500000000E+03  0.12500000000E+03 0.  0.
        -11    1    3    3    0    0  0.64024237437E+01 -0.43231377063E+02 -0.38231008522E+02  0.58065075609E+02  0.51100000000E-03 0. -1.
         23    2    1    0    0    0  0.25713998999E+01 -0.28410526798E+02 -0.32003717277E+01  0.96294381916E+02  0.91916241650E+02 0.  0.
         11    1    3    3    0    0 -0.38310238438E+01  0.14820850265E+02  0.35030636794E+02  0.38229306307E+02  0.51100000000E-03 0.  1.
         22    1    1    0    0    0 -0.25713998999E+01  0.28410526798E+02  0.32003717277E+01  0.28705618084E+02  0.00000000000E+00 0. -1.
</event>
<event>
 5    1  0.1096978E-009  0.9118800E+02  0.7818608E-02  0.1130116E+00
         25   -1    0    0    0    0  0.00000000000E+00  0.00000000000E+00  0.99999998245E-14  0.12500000000E+03  0.12500000000E+03 0.  0.
        -11    1    3    3    0    0  0.27246487450E+02  0.25428721431E+02 -0.20844782406E+02  0.42702411007E+02  0.51100000000E-03 0.  1.
         23    2    1    0    0    0 -0.22277165801E+02  0.95809290426E+01 -0.18040292541E+02  0.94775531892E+02  0.89826961281E+02 0.  0.
         11    1    3    3    0    0 -0.49523653252E+02 -0.15847792388E+02  0.28044898647E+01  0.52073120884E+02  0.51100000000E-03 0. -1.
         22    1    1    0    0    0  0.22277165801E+02 -0.95809290426E+01  0.18040292541E+02  0.30224468108E+02  0.00000000000E+00 0. -1.
</event>
<event>
 5    1  0.1096978E-009  0.9118800E+02  0.7818608E-02  0.1130116E+00
         25   -1    0    0    0    0  0.00000000000E+00  0.00000000000E+00  0.99999998245E-14  0.12500000000E+03  0.12500000000E+03 0.  0.
        -11    1    3    3    0    0 -0.21687137981E+02 -0.57338687794E+02  0.79300957617E+01  0.61813780751E+02  0.51100000000E-03 0. -1.
         23    2    1    0    0    0 -0.71049192411E+01 -0.23239341436E+02  0.94368296533E+01  0.98930849233E+02  0.95434335060E+02 0.  0.
         11    1    3    3    0    0  0.14582218740E+02  0.34099346358E+02  0.15067338916E+01  0.37117068482E+02  0.51100000000E-03 0.  1.
         22    1    1    0    0    0  0.71049192411E+01  0.23239341436E+02 -0.94368296533E+01  0.26069150767E+02  0.00000000000E+00 0. -1.
</event>
<event>
 5    1  0.1096978E-009  0.9118800E+02  0.7818608E-02  0.1130116E+00
         25   -1    0    0    0    0  0.00000000000E+00  0.00000000000E+00  0.99999998245E-14  0.12500000000E+03  0.12500000000E+03 0.  0.
        -11    1    3    3    0    0 -0.35276501530E+02  0.33043900117E+02  0.38050660848E+02  0.61515719019E+02  0.51100000000E-03 0.  1.
         23    2    1    0    0    0 -0.23193575361E+02  0.12181999672E+02  0.15314527781E+02  0.94654031319E+02  0.89657725990E+02 0.  0.
         11    1    3    3    0    0  0.12082926169E+02 -0.20861900445E+02 -0.22736133067E+02  0.33138312300E+02  0.51100000000E-03 0. -1.
         22    1    1    0    0    0  0.23193575361E+02 -0.12181999672E+02 -0.15314527781E+02  0.30345968681E+02  0.00000000000E+00 0.  1.
</event>
<event>
 5    1  0.1096978E-009  0.9118800E+02  0.7818608E-02  0.1130116E+00
         25   -1    0    0    0    0  0.00000000000E+00  0.00000000000E+00  0.99999998245E-14  0.12500000000E+03  0.12500000000E+03 0.  0.
        -11    1    3    3    0    0 -0.35598306795E+02  0.14688581954E+02 -0.14477810822E+01  0.38536864906E+02  0.51100000000E-03 0.  1.
         23    2    1    0    0    0  0.81258990765E+01 -0.13467456196E+02 -0.24870052759E+02  0.95573445047E+02  0.90930529866E+02 0.  0.
         11    1    3    3    0    0  0.43724205871E+02 -0.28156038150E+02 -0.23422271677E+02  0.57036580141E+02  0.51100000000E-03 0. -1.
         22    1    1    0    0    0 -0.81258990765E+01  0.13467456196E+02  0.24870052759E+02  0.29426554953E+02  0.00000000000E+00 0. -1.
</event>
<event>
 5    1  0.1096978E-009  0.9118800E+02  0.7818608E-02  0.1130116E+00
         25   -1    0    0    0    0  0.00000000000E+00  0.00000000000E+00  0.99999998245E-14  0.12500000000E+03  0.12500000000E+03 0.  0.
        -11    1    3    3    0    0  0.28601022169E+01  0.22143163731E+02 -0.25455119158E+01  0.22471749284E+02  0.51100000000E-03 0. -1.
         23    2    1    0    0    0  0.15941799179E+02 -0.37695109553E+02  0.29312526093E+01  0.83967640975E+02  0.73259199039E+02 0.  0.
         11    1    3    3    0    0  0.13081696963E+02 -0.59838273284E+02  0.54767645251E+01  0.61495891691E+02  0.51100000000E-03 0.  1.
         22    1    1    0    0    0 -0.15941799179E+02  0.37695109553E+02 -0.29312526093E+01  0.41032359025E+02  0.00000000000E+00 0.  1.
</event>
<event>
 5    1  0.1096978E-009  0.9118800E+02  0.7818608E-02  0.1130116E+00
         25   -1    0    0    0    0  0.00000000000E+00  0.00000000000E+00  0.99999998245E-14  0.12500000000E+03  0.12500000000E+03 0.  0.
        -11    1    3    3    0    0 -0.37465346254E+02 -0.35151860269E+01 -0.17278244082E+02  0.41407081781E+02  0.51100000000E-03 0.  1.
         23    2    1    0    0    0  0.66844210324E+01  0.22122751828E+02  0.10597531123E+02  0.99575498060E+02  0.96274994235E+02 0.  0.
         11    1    3    3    0    0  0.44149767287E+02  0.25637937855E+02  0.27875775205E+02  0.58168416280E+02  0.51100000000E-03 0. -1.
         22    1    1    0    0    0 -0.66844210324E+01 -0.22122751828E+02 -0.10597531123E+02  0.25424501940E+02  0.00000000000E+00 0. -1.
</event>
<event>
 5    1  0.1096978E-009  0.9118800E+02  0.7818608E-02  0.1130116E+00
         25   -1    0    0    0    0  0.00000000000E+00  0.00000000000E+00  0.99999998245E-14  0.12500000000E+03  0.12500000000E+03 0.  0.
        -11    1    3    3    0    0  0.50772070664E+02 -0.51578667103E+01 -0.13297501145E+02  0.52737370862E+02  0.51100000000E-03 0. -1.
         23    2    1    0    0    0  0.19307918859E+02 -0.17077155814E+02  0.13638891719E+02  0.95837621005E+02  0.91292963865E+02 0.  0.
         11    1    3    3    0    0 -0.31464151805E+02 -0.11919289103E+02  0.26936392864E+02  0.43100250142E+02  0.51100000000E-03 0.  1.
         22    1    1    0    0    0 -0.19307918859E+02  0.17077155814E+02 -0.13638891719E+02  0.29162378995E+02  0.00000000000E+00 0.  1.
</event>
<event>
 5    1  0.1096978E-009  0.9118800E+02  0.7818608E-02  0.1130116E+00
         25   -1    0    0    0    0  0.00000000000E+00  0.00000000000E+00  0.99999998245E-14  0.12500000000E+03  0.12500000000E+03 0.  0.
        -11    1    3    3    0    0 -0.39576680031E+01  0.16247374343E+02  0.54003239084E+02  0.56533088903E+02  0.51100000000E-03 0. -1.
         23    2    1    0    0    0 -0.20416857266E+02  0.51260477748E+01  0.19719347030E+02  0.96155987212E+02  0.91727840938E+02 0.  0.
         11    1    3    3    0    0 -0.16459189263E+02 -0.11121326568E+02 -0.34283892054E+02  0.39622898310E+02  0.51100000000E-03 0.  1.
         22    1    1    0    0    0  0.20416857266E+02 -0.51260477748E+01 -0.19719347030E+02  0.28844012788E+02  0.00000000000E+00 0. -1.
</event>
<event>
 5    1  0.1096978E-009  0.9118800E+02  0.7818608E-02  0.1130116E+00
         25   -1    0    0    0    0  0.00000000000E+00  0.00000000000E+00  0.99999998245E-14  0.12500000000E+03  0.12500000000E+03 0.  0.
        -11    1    3    3    0    0 -0.14834334169E+02  0.32761792854E+02  0.50612718718E+02  0.62088967116E+02  0.51100000000E-03 0. -1.
         23    2    1    0    0    0 -0.76069933782E+01  0.19447723867E+02  0.20821439128E+02  0.95510804703E+02  0.90844378890E+02 0.  0.
         11    1    3    3    0    0  0.72273407904E+01 -0.13314068987E+02 -0.29791279590E+02  0.33421837588E+02  0.51100000000E-03 0.  1.
         22    1    1    0    0    0  0.76069933782E+01 -0.19447723867E+02 -0.20821439128E+02  0.29489195297E+02  0.00000000000E+00 0. -1.
</event>
<event>
 5    1  0.1096978E-009  0.9118800E+02  0.7818608E-02  0.1130116E+00
         25   -1    0    0    0    0  0.00000000000E+00  0.00000000000E+00  0.99999998245E-14  0.12500000000E+03  0.12500000000E+03 0.  0.
        -11    1    3    3    0    0  0.29769118740E+02 -0.19120316962E+02  0.42796836784E+02  0.55527976645E+02  0.51100000000E-03 0.  1.
         23    2    1    0    0    0  0.22635419245E+02 -0.17287043037E+02  0.25934194168E+01  0.96400526480E+02  0.92060478056E+02 0.  0.
         11    1    3    3    0    0 -0.71336994948E+01  0.18332739256E+01 -0.40203417367E+02  0.40872549835E+02  0.51100000000E-03 0. -1.
         22    1    1    0    0    0 -0.22635419245E+02  0.17287043037E+02 -0.25934194168E+01  0.28599473520E+02  0.00000000000E+00 0.  1.
</event>
<event>
 5    1  0.1096978E-009  0.9118800E+02  0.7818608E-02  0.1130116E+00
         25   -1    0    0    0    0  0.00000000000E+00  0.00000000000E+00  0.99999998245E-14  0.12500000000E+03  0.12500000000E+03 0.  0.
        -11    1    3    3    0    0 -0.49769911821E+02 -0.22298660636E+02  0.69448817160E+01  0.54977320516E+02  0.51100000000E-03 0. -1.
         23    2    1    0    0    0 -0.26327224748E+02 -0.94786088036E+01  0.25205153095E+02  0.87340120416E+02  0.78803744225E+02 0.  0.
         11    1    3    3    0    0  0.23442687074E+02  0.12820051832E+02  0.18260271379E+02  0.32362799899E+02  0.51100000000E-03 0.  1.
         22    1    1    0    0    0  0.26327224748E+02  0.94786088036E+01 -0.25205153095E+02  0.37659879584E+02  0.00000000000E+00 0. -1.
</event>
<event>
 5    1  0.1096978E-009  0.9118800E+02  0.7818608E-02  0.1130116E+00
         25   -1    0    0    0    0  0.00000000000E+00  0.00000000000E+00  0.99999998245E-14  0.12500000000E+03  0.12500000000E+03 0.  0.
        -11    1    3    3    0    0 -0.27139229062E+02  0.16871910315E+02 -0.31009648995E+02  0.44528613754E+02  0.51100000000E-03 0.  1.
         23    2    1    0    0    0  0.21476082895E+02  0.11069874965E+02 -0.17011774042E+02  0.95450639189E+02  0.90761554621E+02 0.  0.
         11    1    3    3    0    0  0.48615311958E+02 -0.58020353504E+01  0.13997874953E+02  0.50922025435E+02  0.51100000000E-03 0. -1.
         22    1    1    0    0    0 -0.21476082895E+02 -0.11069874965E+02  0.17011774042E+02  0.29549360811E+02  0.00000000000E+00 0.  1.
</event>
<event>
 5    1  0.1096978E-009  0.9118800E+02  0.7818608E-02  0.1130116E+00
         25   -1    0    0    0    0  0.00000000000E+00  0.00000000000E+00  0.99999998245E-14  0.12500000000E+03  0.12500000000E+03 0.  0.
        -11    1    3    3    0    0  0.63651160298E+01  0.32266131264E+02 -0.46849865216E+02  0.57240962604E+02  0.51100000000E-03 0.  1.
         23    2    1    0    0    0  0.41119999747E+01 -0.12226689328E+01 -0.29809563763E+02  0.94883334267E+02  0.89976850172E+02 0.  0.
         11    1    3    3    0    0 -0.22531160551E+01 -0.33488800196E+02  0.17040301453E+02  0.37642371663E+02  0.51100000000E-03 0. -1.
         22    1    1    0    0    0 -0.41119999747E+01  0.12226689328E+01  0.29809563763E+02  0.30116665733E+02  0.00000000000E+00 0.  1.
</event>
<event>
 5    1  0.1096978E-009  0.9118800E+02  0.7818608E-02  0.1130116E+00
         25   -1    0    0    0    0  0.00000000000E+00  0.00000000000E+00  0.99999998245E-14  0.12500000000E+03  0.12500000000E+03 0.  0.
        -11    1    3    3    0    0 -0.21607766175E+02 -0.29319539051E+02  0.48564629664E+02  0.60704647135E+02  0.51100000000E-03 0. -1.
         23    2    1    0    0    0 -0.18166974144E+02 -0.14354569082E+02  0.15568166762E+02  0.97099096441E+02  0.93004161790E+02 0.  0.
         11    1    3    3    0    0  0.34407920302E+01  0.14964969968E+02 -0.32996462902E+02  0.36394449305E+02  0.51100000000E-03 0.  1.
         22    1    1    0    0    0  0.18166974144E+02  0.14354569082E+02 -0.15568166762E+02  0.27900903559E+02  0.00000000000E+00 0. -1.
</event>
<event>
 5    1  0.1096978E-009  0.9118800E+02  0.7818608E-02  0.1130116E+00
         25   -1    0    0    0    0  0.00000000000E+00  0.00000000000E+00  0.99999998245E-14  0.12500000000E+03  0.12500000000E+03 0.  0.
        -11    1    3    3    0    0 -0.37167288269E+02 -0.30114911301E+02  0.27285259157E+02  0.55070868591E+02  0.51100000000E-03 0. -1.
         23    2    1    0    0    0 -0.20053788457E+01 -0.21793771830E+02  0.25707083782E+02  0.91238421372E+02  0.84762051314E+02 0.  0.
         11    1    3    3    0    0  0.35161909423E+02  0.83211394706E+01 -0.15781753743E+01  0.36167552781E+02  0.51100000000E-03 0.  1.
         22    1    1    0    0    0  0.20053788457E+01  0.21793771830E+02 -0.25707083782E+02  0.33761578628E+02  0.00000000000E+00 0. -1.
</event>
<event>
 5    1  0.1096978E-009  0.9118800E+02  0.7818608E-02  0.1130116E+00
         25   -1    0    0    0    0  0.00000000000E+00  0.00000000000E+00  0.99999998245E-14  0.12500000000E+03  0.12500000000E+03 0.  0.
        -11    1    3    3    0    0 -0.24830201154E+02 -0.76943286405E+00 -0.33688019076E+02  0.41857060883E+02  0.51100000000E-03 0. -1.
         23    2    1    0    0    0 -0.15634256018E+02  0.18071465723E+02  0.16307193842E+02  0.96070215942E+02  0.91610883554E+02 0.  0.
         11    1    3    3    0    0  0.91959451358E+01  0.18840898587E+02  0.49995212918E+02  0.54213155059E+02  0.51100000000E-03 0.  1.
         22    1    1    0    0    0  0.15634256018E+02 -0.18071465723E+02 -0.16307193842E+02  0.28929784058E+02  0.00000000000E+00 0.  1.
</event>
<event>
 5    1  0.1096978E-009  0.9118800E+02  0.7818608E-02  0.1130116E+00
         25   -1    0    0    0    0  0.00000000000E+00  0.00000000000E+00  0.99999998245E-14  0.12500000000E+03  0.12500000000E+03 0.  0.
        -11    1    3    3    0    0  0.20653265832E+02 -0.25490718162E+02 -0.23657155599E+02  0.40447436423E+02  0.51100000000E-03 0.  1.
         23    2    1    0    0    0  0.25609811442E+02  0.20306541038E+02  0.18354658340E+00  0.92315879386E+02  0.86336376148E+02 0.  0.
         11    1    3    3    0    0  0.49565456093E+01  0.45797259199E+02  0.23840702182E+02  0.51868442962E+02  0.51100000000E-03 0. -1.
         22    1    1    0    0    0 -0.25609811442E+02 -0.20306541038E+02 -0.18354658340E+00  0.32684120614E+02  0.00000000000E+00 0. -1.
</event>
<event>
 5    1  0.1096978E-009  0.9118800E+02  0.7818608E-02  0.1130116E+00
         25   -1    0    0    0    0  0.00000000000E+00  0.00000000000E+00  0.99999998245E-14  0.12500000000E+03  0.12500000000E+03 0.  0.
        -11    1    3    3    0    0  0.35230861618E+02 -0.36443521877E+02  0.74813741917E+01  0.51237826429E+02  0.51100000000E-03 0. -1.
         23    2    1    0    0    0  0.88840279158E+01 -0.89606994824E+01  0.27856472991E+02  0.94418908215E+02  0.89329317997E+02 0.  0.
         11    1    3    3    0    0 -0.26346833702E+02  0.27482822394E+02  0.20375098800E+02  0.43181081786E+02  0.51100000000E-03 0.  1.
         22    1    1    0    0    0 -0.88840279158E+01  0.89606994824E+01 -0.27856472991E+02  0.30581091785E+02  0.00000000000E+00 0. -1.
</event>
<event>
 5    1  0.1096978E-009  0.9118800E+02  0.7818608E-02  0.1130116E+00
         25   -1    0    0    0    0  0.00000000000E+00  0.00000000000E+00  0.99999998245E-14  0.12500000000E+03  0.12500000000E+03 0.  0.
        -11    1    3    3    0    0  0.15202570296E+02  0.17760728163E+02 -0.27737752170E+02  0.36275949390E+02  0.51100000000E-03 0.  1.
         23    2    1    0    0    0 -0.21507486022E+02 -0.97974124148E+00  0.17339391340E+02  0.97356079512E+02  0.93348914712E+02 0.  0.
         11    1    3    3    0    0 -0.36710056318E+02 -0.18740469404E+02  0.45077143510E+02  0.61080130122E+02  0.51100000000E-03 0. -1.
         22    1    1    0    0    0  0.21507486022E+02  0.97974124148E+00 -0.17339391340E+02  0.27643920488E+02  0.00000000000E+00 0. -1.
</event>
<event>
 5    1  0.1096978E-009  0.9118800E+02  0.7818608E-02  0.1130116E+00
         25   -1    0    0    0    0  0.00000000000E+00  0.00000000000E+00  0.99999998245E-14  0.12500000000E+03  0.12500000000E+03 0.  0.
        -11    1    3    3    0    0  0.32916116793E+02 -0.31366513038E+02  0.31559345119E+02  0.55347277706E+02  0.51100000000E-03 0. -1.
         23    2    1    0    0    0  0.25421486373E+02  0.41751996446E+01  0.13624766691E+02  0.95856930003E+02  0.91319398272E+02 0.  0.
         11    1    3    3    0    0 -0.74946304199E+01  0.35541712683E+02 -0.17934578427E+02  0.40509652297E+02  0.51100000000E-03 0.  1.
         22    1    1    0    0    0 -0.25421486373E+02 -0.41751996446E+01 -0.13624766691E+02  0.29143069997E+02  0.00000000000E+00 0. -1.
</event>
<event>
 5    1  0.1096978E-009  0.9118800E+02  0.7818608E-02  0.1130116E+00
         25   -1    0    0    0    0  0.00000000000E+00  0.00000000000E+00  0.99999998245E-14  0.12500000000E+03  0.12500000000E+03 0.  0.
        -11    1    3    3    0    0  0.52867153486E+02  0.17102799867E+02 -0.76935966511E+01  0.56094858148E+02  0.51100000000E-03 0. -1.
         23    2    1    0    0    0  0.25080445387E+02  0.33178961627E+00  0.15070668950E+02  0.95738012922E+02  0.91156476623E+02 0.  0.
         11    1    3    3    0    0 -0.27786708098E+02 -0.16771010251E+02  0.22764265601E+02  0.39643154773E+02  0.51100000000E-03 0.  1.
         22    1    1    0    0    0 -0.25080445387E+02 -0.33178961627E+00 -0.15070668950E+02  0.29261987078E+02  0.00000000000E+00 0. -1.
</event>
<event>
 5    1  0.1096978E-009  0.9118800E+02  0.7818608E-02  0.1130116E+00
         25   -1    0    0    0    0  0.00000000000E+00  0.00000000000E+00  0.99999998245E-14  0.12500000000E+03  0.12500000000E+03 0.  0.
        -11    1    3    3    0    0 -0.14181049056E+02  0.30973237528E+02  0.13993098230E+02  0.36827305001E+02  0.51100000000E-03 0.  1.
         23    2    1    0    0    0 -0.20256149631E+01 -0.24021676733E+02 -0.11068235941E+02  0.98473599643E+02  0.94833537901E+02 0.  0.
         11    1    3    3    0    0  0.12155434093E+02 -0.54994914261E+02 -0.25061334171E+02  0.61646294643E+02  0.51100000000E-03 0. -1.
         22    1    1    0    0    0  0.20256149631E+01  0.24021676733E+02  0.11068235941E+02  0.26526400357E+02  0.00000000000E+00 0. -1.
</event>
<event>
 5    1  0.1096978E-009  0.9118800E+02  0.7818608E-02  0.1130116E+00
         25   -1    0    0    0    0  0.00000000000E+00  0.00000000000E+00  0.99999998245E-14  0.12500000000E+03  0.12500000000E+03 0.  0.
        -11    1    3    3    0    0 -0.47802964215E+02  0.34966469451E+02 -0.23587418341E+01  0.59273442931E+02  0.51100000000E-03 0.  1.
         23    2    1    0    0    0 -0.25202402913E+02  0.81154004874E+01  0.10310288514E+02  0.96586572067E+02  0.92312745690E+02 0.  0.
         11    1    3    3    0    0  0.22600561303E+02 -0.26851068964E+02  0.12669030348E+02  0.37313129136E+02  0.51100000000E-03 0. -1.
         22    1    1    0    0    0  0.25202402913E+02 -0.81154004874E+01 -0.10310288514E+02  0.28413427933E+02  0.00000000000E+00 0.  1.
</event>
<event>
 5    1  0.1096978E-009  0.9118800E+02  0.7818608E-02  0.1130116E+00
         25   -1    0    0    0    0  0.00000000000E+00  0.00000000000E+00  0.99999998245E-14  0.12500000000E+03  0.12500000000E+03 0.  0.
        -11    1    3    3    0    0 -0.35231353911E+02 -0.17891769752E+02 -0.35280368171E+02  0.52972333362E+02  0.51100000000E-03 0.  1.
         23    2    1    0    0    0 -0.29178780070E+02  0.97627300348E+00  0.25661813012E+01  0.95692328619E+02  0.91093809640E+02 0.  0.
         11    1    3    3    0    0  0.60525738414E+01  0.18868042755E+02  0.37846549472E+02  0.42719995257E+02  0.51100000000E-03 0. -1.
         22    1    1    0    0    0  0.29178780070E+02 -0.97627300348E+00 -0.25661813012E+01  0.29307671381E+02  0.00000000000E+00 0. -1.
</event>
<event>
 5    1  0.1096978E-009  0.9118800E+02  0.7818608E-02  0.1130116E+00
         25   -1    0    0    0    0  0.00000000000E+00  0.00000000000E+00  0.99999998245E-14  0.12500000000E+03  0.12500000000E+03 0.  0.
        -11    1    3    3    0    0  0.42165953040E+02 -0.78983107506E+01 -0.42805698144E+02  0.60602629500E+02  0.51100000000E-03 0.  1.
         23    2    1    0    0    0  0.23495364782E+02 -0.90549138414E+01 -0.10955139724E+02  0.97540234573E+02  0.93595184936E+02 0.  0.
         11    1    3    3    0    0 -0.18670588257E+02 -0.11566030907E+01  0.31850558420E+02  0.36937605073E+02  0.51100000000E-03 0. -1.
         22    1    1    0    0    0 -0.23495364782E+02  0.90549138414E+01  0.10955139724E+02  0.27459765427E+02  0.00000000000E+00 0.  1.
</event>
<event>
 5    1  0.1096978E-009  0.9118800E+02  0.7818608E-02  0.1130116E+00
         25   -1    0    0    0    0  0.00000000000E+00  0.00000000000E+00  0.99999998245E-14  0.12500000000E+03  0.12500000000E+03 0.  0.
        -11    1    3    3    0    0  0.29196614317E+02  0.67151991764E+01 -0.33207726036E+02  0.44724593417E+02  0.51100000000E-03 0. -1.
         23    2    1    0    0    0  0.87651519965E+01  0.29984576598E+02  0.44127363814E+01  0.93450436364E+02  0.87963680522E+02 0.  0.
         11    1    3    3    0    0 -0.20431462321E+02  0.23269377421E+02  0.37620462417E+02  0.48725842947E+02  0.51100000000E-03 0.  1.
         22    1    1    0    0    0 -0.87651519965E+01 -0.29984576598E+02 -0.44127363814E+01  0.31549563636E+02  0.00000000000E+00 0.  1.
</event>
<event>
 5    1  0.1096978E-009  0.9118800E+02  0.7818608E-02  0.1130116E+00
         25   -1    0    0    0    0  0.00000000000E+00  0.00000000000E+00  0.99999998245E-14  0.12500000000E+03  0.12500000000E+03 0.  0.
        -11    1    3    3    0    0 -0.50362816824E+02 -0.32010747794E+02  0.47650925902E+01  0.59864909592E+02  0.51100000000E-03 0. -1.
         23    2    1    0    0    0 -0.14500910059E+02  0.28216625853E+01 -0.10183649023E+01  0.11019205486E+03  0.10919255338E+03 0.  0.
         11    1    3    3    0    0  0.35861906765E+02  0.34832410379E+02 -0.57834574925E+01  0.50327145265E+02  0.51100000000E-03 0.  1.
         22    1    1    0    0    0  0.14500910059E+02 -0.28216625853E+01  0.10183649023E+01  0.14807945143E+02  0.00000000000E+00 0. -1.
</event>
<event>
 5    1  0.1096978E-009  0.9118800E+02  0.7818608E-02  0.1130116E+00
         25   -1    0    0    0    0  0.00000000000E+00  0.00000000000E+00  0.99999998245E-14  0.12500000000E+03  0.12500000000E+03 0.  0.
        -11    1    3    3    0    0 -0.31676715260E+01 -0.20042641600E+02 -0.22223764102E+02  0.30093808604E+02  0.51100000000E-03 0. -1.
         23    2    1    0    0    0  0.41774316176E+02 -0.14534921953E+02  0.52635220883E+00  0.80766138595E+02  0.67576139641E+02 0.  0.
         11    1    3    3    0    0  0.44941987702E+02  0.55077196472E+01  0.22750116310E+02  0.50672329991E+02  0.51100000000E-03 0.  1.
         22    1    1    0    0    0 -0.41774316176E+02  0.14534921953E+02 -0.52635220883E+00  0.44233861405E+02  0.00000000000E+00 0.  1.
</event>
<event>
 5    1  0.1096978E-009  0.9118800E+02  0.7818608E-02  0.1130116E+00
         25   -1    0    0    0    0  0.00000000000E+00  0.00000000000E+00  0.99999998245E-14  0.12500000000E+03  0.12500000000E+03 0.  0.
        -11    1    3    3    0    0  0.28361885147E+02  0.29395968949E+02 -0.35008767885E+02  0.53797150005E+02  0.51100000000E-03 0. -1.
         23    2    1    0    0    0  0.43729558543E+01 -0.57200296515E+01 -0.26979658053E+02  0.97076113616E+02  0.92973267148E+02 0.  0.
         11    1    3    3    0    0 -0.23988929293E+02 -0.35115998601E+02  0.80291098318E+01  0.43278963612E+02  0.51100000000E-03 0.  1.
         22    1    1    0    0    0 -0.43729558543E+01  0.57200296515E+01  0.26979658053E+02  0.27923886384E+02  0.00000000000E+00 0. -1.
</event>
<event>
 5    1  0.1096978E-009  0.9118800E+02  0.7818608E-02  0.1130116E+00
         25   -1    0    0    0    0  0.00000000000E+00  0.00000000000E+00  0.99999998245E-14  0.12500000000E+03  0.12500000000E+03 0.  0.
        -11    1    3    3    0    0  0.33946107865E+02 -0.44975691851E+02 -0.22893311498E+02  0.60821499556E+02  0.51100000000E-03 0. -1.
         23    2    1    0    0    0  0.23242887808E+02 -0.32883071107E+02 -0.58353147051E+01  0.84311191996E+02  0.73843063311E+02 0.  0.
         11    1    3    3    0    0 -0.10703220058E+02  0.12092620745E+02  0.17057996793E+02  0.23489692440E+02  0.51100000000E-03 0.  1.
         22    1    1    0    0    0 -0.23242887808E+02  0.32883071107E+02  0.58353147051E+01  0.40688808004E+02  0.00000000000E+00 0. -1.
</event>
<event>
 5    1  0.1096978E-009  0.9118800E+02  0.7818608E-02  0.1130116E+00
         25   -1    0    0    0    0  0.00000000000E+00  0.00000000000E+00  0.99999998245E-14  0.12500000000E+03  0.12500000000E+03 0.  0.
        -11    1    3    3    0    0 -0.13591459981E+02 -0.11733650361E+01 -0.53438481427E+02  0.55152297028E+02  0.51100000000E-03 0.  1.
         23    2    1    0    0    0 -0.22504369907E+02 -0.11051012057E+02 -0.15102505615E+02  0.95731293020E+02  0.91147261369E+02 0.  0.
         11    1    3    3    0    0 -0.89129099257E+01 -0.98776470212E+01  0.38335975812E+02  0.40578995993E+02  0.51100000000E-03 0. -1.
         22    1    1    0    0    0  0.22504369907E+02  0.11051012057E+02  0.15102505615E+02  0.29268706980E+02  0.00000000000E+00 0.  1.
</event>
<event>
 5    1  0.1096978E-009  0.9118800E+02  0.7818608E-02  0.1130116E+00
         25   -1    0    0    0    0  0.00000000000E+00  0.00000000000E+00  0.99999998245E-14  0.12500000000E+03  0.12500000000E+03 0.  0.
        -11    1    3    3    0    0  0.16616001634E+02  0.11971869656E+02  0.28111049549E+02  0.34779998280E+02  0.51100000000E-03 0. -1.
         23    2    1    0    0    0 -0.24983617405E+02 -0.23639843889E+01 -0.14487797065E+02  0.96023012154E+02  0.91546452900E+02 0.  0.
         11    1    3    3    0    0 -0.41599619038E+02 -0.14335854045E+02 -0.42598846614E+02  0.61243013874E+02  0.51100000000E-03 0.  1.
         22    1    1    0    0    0  0.24983617405E+02  0.23639843889E+01  0.14487797065E+02  0.28976987846E+02  0.00000000000E+00 0.  1.
</event>
<event>
 5    1  0.1096978E-009  0.9118800E+02  0.7818608E-02  0.1130116E+00
         25   -1    0    0    0    0  0.00000000000E+00  0.00000000000E+00  0.99999998245E-14  0.12500000000E+03  0.12500000000E+03 0.  0.
        -11    1    3    3    0    0 -0.41042657577E+02  0.26555296101E+02  0.14586189800E+02  0.51014119860E+02  0.51100000000E-03 0.  1.
         23    2    1    0    0    0 -0.31708497413E+01  0.30421749849E+02 -0.52901387441E+01  0.93959337638E+02  0.88683901637E+02 0.  0.
         11    1    3    3    0    0  0.37871807836E+02  0.38664537480E+01 -0.19876328544E+02  0.42945217778E+02  0.51100000000E-03 0. -1.
         22    1    1    0    0    0  0.31708497413E+01 -0.30421749849E+02  0.52901387441E+01  0.31040662362E+02  0.00000000000E+00 0.  1.
</event>
<event>
 5    1  0.1096978E-009  0.9118800E+02  0.7818608E-02  0.1130116E+00
         25   -1    0    0    0    0  0.00000000000E+00  0.00000000000E+00  0.99999998245E-14  0.12500000000E+03  0.12500000000E+03 0.  0.
        -11    1    3    3    0    0 -0.16383408818E+02 -0.19596246308E+02  0.36915105803E+02  0.44890466589E+02  0.51100000000E-03 0.  1.
         23    2    1    0    0    0  0.47360060055E+01  0.22734091781E+02  0.17012361441E+02  0.96213038997E+02  0.91805554022E+02 0.  0.
         11    1    3    3    0    0  0.21119414823E+02  0.42330338089E+02 -0.19902744362E+02  0.51322572408E+02  0.51100000000E-03 0. -1.
         22    1    1    0    0    0 -0.47360060055E+01 -0.22734091781E+02 -0.17012361441E+02  0.28786961003E+02  0.00000000000E+00 0. -1.
</event>
<event>
 5    1  0.1096978E-009  0.9118800E+02  0.7818608E-02  0.1130116E+00
         25   -1    0    0    0    0  0.00000000000E+00  0.00000000000E+00  0.99999998245E-14  0.12500000000E+03  0.12500000000E+03 0.  0.
        -11    1    3    3    0    0 -0.15686077918E+02 -0.31121089512E+02 -0.18020931711E+02  0.39234286445E+02  0.51100000000E-03 0.  1.
         23    2    1    0    0    0  0.11835011137E+02  0.16956715618E+02 -0.22040941892E+02  0.94777478386E+02  0.89829669913E+02 0.  0.
         11    1    3    3    0    0  0.27521089055E+02  0.48077805130E+02 -0.40200101810E+01  0.55543191941E+02  0.51100000000E-03 0. -1.
         22    1    1    0    0    0 -0.11835011137E+02 -0.16956715618E+02  0.22040941892E+02  0.30222521614E+02  0.00000000000E+00 0. -1.
</event>
<event>
 5    1  0.1096978E-009  0.9118800E+02  0.7818608E-02  0.1130116E+00
         25   -1    0    0    0    0  0.00000000000E+00  0.00000000000E+00  0.99999998245E-14  0.12500000000E+03  0.12500000000E+03 0.  0.
        -11    1    3    3    0    0  0.42345827003E+02  0.11849304568E+02 -0.28013859534E+02  0.52137811707E+02  0.51100000000E-03 0.  1.
         23    2    1    0    0    0  0.25415814677E+02  0.59139536396E+01  0.12216560198E+02  0.96187106595E+02  0.91770238360E+02 0.  0.
         11    1    3    3    0    0 -0.16930012326E+02 -0.59353509287E+01  0.40230419732E+02  0.44049294888E+02  0.51100000000E-03 0. -1.
         22    1    1    0    0    0 -0.25415814677E+02 -0.59139536396E+01 -0.12216560198E+02  0.28812893405E+02  0.00000000000E+00 0.  1.
</event>
<event>
 5    1  0.1096978E-009  0.9118800E+02  0.7818608E-02  0.1130116E+00
         25   -1    0    0    0    0  0.00000000000E+00  0.00000000000E+00  0.99999998245E-14  0.12500000000E+03  0.12500000000E+03 0.  0.
        -11    1    3    3    0    0  0.28298333101E+02 -0.12750305957E+02  0.18281102587E+02  0.36021724977E+02  0.51100000000E-03 0. -1.
         23    2    1    0    0    0 -0.11338717169E+02 -0.62109148306E+01 -0.26093344867E+02  0.95879481179E+02  0.91350261602E+02 0.  0.
         11    1    3    3    0    0 -0.39637050270E+02  0.65393911265E+01 -0.44374447453E+02  0.59857756202E+02  0.51100000000E-03 0.  1.
         22    1    1    0    0    0  0.11338717169E+02  0.62109148306E+01  0.26093344867E+02  0.29120518821E+02  0.00000000000E+00 0.  1.
</event>
<event>
 5    1  0.1096978E-009  0.9118800E+02  0.7818608E-02  0.1130116E+00
         25   -1    0    0    0    0  0.00000000000E+00  0.00000000000E+00  0.99999998245E-14  0.12500000000E+03  0.12500000000E+03 0.  0.
        -11    1    3    3    0    0  0.57469579180E+01  0.14618433487E+02 -0.47258009623E+02  0.49800056192E+02  0.51100000000E-03 0. -1.
         23    2    1    0    0    0  0.29703805175E+02  0.17959504631E+01 -0.16015192359E+02  0.91206097203E+02  0.84714368916E+02 0.  0.
         11    1    3    3    0    0  0.23956847257E+02 -0.12822483024E+02  0.31242817264E+02  0.41406041012E+02  0.51100000000E-03 0.  1.
         22    1    1    0    0    0 -0.29703805175E+02 -0.17959504631E+01  0.16015192359E+02  0.33793902797E+02  0.00000000000E+00 0. -1.
</event>
<event>
 5    1  0.1096978E-009  0.9118800E+02  0.7818608E-02  0.1130116E+00
         25   -1    0    0    0    0  0.00000000000E+00  0.00000000000E+00  0.99999998245E-14  0.12500000000E+03  0.12500000000E+03 0.  0.
        -11    1    3    3    0    0  0.22846377435E+02 -0.29989808888E+02 -0.16667964018E+02  0.41220948847E+02  0.51100000000E-03 0.  1.
         23    2    1    0    0    0 -0.75967244920E+01  0.13939728959E+02 -0.25071877065E+02  0.95324668729E+02  0.90587897549E+02 0.  0.
         11    1    3    3    0    0 -0.30443101927E+02  0.43929537847E+02 -0.84039130470E+01  0.54103719883E+02  0.51100000000E-03 0. -1.
         22    1    1    0    0    0  0.75967244920E+01 -0.13939728959E+02  0.25071877065E+02  0.29675331271E+02  0.00000000000E+00 0. -1.
</event>
<event>
 5    1  0.1096978E-009  0.9118800E+02  0.7818608E-02  0.1130116E+00
         25   -1    0    0    0    0  0.00000000000E+00  0.00000000000E+00  0.99999998245E-14  0.12500000000E+03  0.12500000000E+03 0.  0.
        -11    1    3    3    0    0  0.53420229780E+02  0.37400166984E+01  0.66358767154E+01  0.53960573891E+02  0.51100000000E-03 0. -1.
         23    2    1    0    0    0  0.21183245436E+02 -0.13882197251E+02 -0.13961806516E+02  0.96079811050E+02  0.91623974823E+02 0.  0.
         11    1    3    3    0    0 -0.32236984343E+02 -0.17622213949E+02 -0.20597683232E+02  0.42119237158E+02  0.51100000000E-03 0.  1.
         22    1    1    0    0    0 -0.21183245436E+02  0.13882197251E+02  0.13961806516E+02  0.28920188950E+02  0.00000000000E+00 0. -1.
</event>
<event>
 5    1  0.1096978E-009  0.9118800E+02  0.7818608E-02  0.1130116E+00
         25   -1    0    0    0    0  0.00000000000E+00  0.00000000000E+00  0.99999998245E-14  0.12500000000E+03  0.12500000000E+03 0.  0.
        -11    1    3    3    0    0 -0.12838827643E+02 -0.39462930678E+02  0.16161609115E+01  0.41530354794E+02  0.51100000000E-03 0. -1.
         23    2    1    0    0    0 -0.11351944759E+02  0.82820610126E+01  0.26212104730E+02  0.95258890088E+02  0.90497085710E+02 0.  0.
         11    1    3    3    0    0  0.14868828835E+01  0.47744991691E+02  0.24595943818E+02  0.53728535294E+02  0.51100000000E-03 0.  1.
         22    1    1    0    0    0  0.11351944759E+02 -0.82820610126E+01 -0.26212104730E+02  0.29741109912E+02  0.00000000000E+00 0.  1.
</event>
<event>
 5    1  0.1096978E-009  0.9118800E+02  0.7818608E-02  0.1130116E+00
         25   -1    0    0    0    0  0.00000000000E+00  0.00000000000E+00  0.99999998245E-14  0.12500000000E+03  0.12500000000E+03 0.  0.
        -11    1    3    3    0    0  0.10763309772E+02  0.30779769356E+02 -0.29421372775E+02  0.43918791138E+02  0.51100000000E-03 0. -1.
         23    2    1    0    0    0 -0.24350031637E+02  0.15445279786E+02  0.53647293552E+01  0.95669793225E+02  0.91062881056E+02 0.  0.
         11    1    3    3    0    0 -0.35113341410E+02 -0.15334489570E+02  0.34786102130E+02  0.51751002087E+02  0.51100000000E-03 0.  1.
         22    1    1    0    0    0  0.24350031637E+02 -0.15445279786E+02 -0.53647293552E+01  0.29330206775E+02  0.00000000000E+00 0.  1.
</event>
<event>
 5    1  0.1096978E-009  0.9118800E+02  0.7818608E-02  0.1130116E+00
         25   -1    0    0    0    0  0.00000000000E+00  0.00000000000E+00  0.99999998245E-14  0.12500000000E+03  0.12500000000E+03 0.  0.
        -11    1    3    3    0    0 -0.42950247724E+02  0.24324367456E+02  0.24368067279E+02  0.55047264554E+02  0.51100000000E-03 0. -1.
         23    2    1    0    0    0 -0.50608416467E+01  0.27107182335E+02  0.98587734403E+01  0.95715074422E+02  0.91125016354E+02 0.  0.
         11    1    3    3    0    0  0.37889406077E+02  0.27828148799E+01 -0.14509293839E+02  0.40667809869E+02  0.51100000000E-03 0.  1.
         22    1    1    0    0    0  0.50608416467E+01 -0.27107182335E+02 -0.98587734403E+01  0.29284925578E+02  0.00000000000E+00 0. -1.
</event>
<event>
 5    1  0.1096978E-009  0.9118800E+02  0.7818608E-02  0.1130116E+00
         25   -1    0    0    0    0  0.00000000000E+00  0.00000000000E+00  0.99999998245E-14  0.12500000000E+03  0.12500000000E+03 0.  0.
        -11    1    3    3    0    0  0.11552728978E+02 -0.29855250259E+02 -0.55045952203E+01  0.32482334948E+02  0.51100000000E-03 0.  1.
         23    2    1    0    0    0 -0.64047526984E+01  0.29344148777E+02  0.25001427304E+01  0.94861144045E+02  0.89946017206E+02 0.  0.
         11    1    3    3    0    0 -0.17957481677E+02  0.59199399036E+02  0.80047379507E+01  0.62378809097E+02  0.51100000000E-03 0. -1.
         22    1    1    0    0    0  0.64047526984E+01 -0.29344148777E+02 -0.25001427304E+01  0.30138855955E+02  0.00000000000E+00 0. -1.
</event>
<event>
 5    1  0.1096978E-009  0.9118800E+02  0.7818608E-02  0.1130116E+00
         25   -1    0    0    0    0  0.00000000000E+00  0.00000000000E+00  0.99999998245E-14  0.12500000000E+03  0.12500000000E+03 0.  0.
        -11    1    3    3    0    0 -0.31098398590E+02 -0.98781613083E+01  0.33141625371E+01  0.32797441047E+02  0.51100000000E-03 0. -1.
         23    2    1    0    0    0  0.28474875561E+02 -0.17763463935E+01  0.12918289511E+02  0.93681376968E+02  0.88291246689E+02 0.  0.
         11    1    3    3    0    0  0.59573274151E+02  0.81018149149E+01  0.96041269737E+01  0.60883935920E+02  0.51100000000E-03 0.  1.
         22    1    1    0    0    0 -0.28474875561E+02  0.17763463935E+01 -0.12918289511E+02  0.31318623032E+02  0.00000000000E+00 0.  1.
</event>
<event>
 5    1  0.1096978E-009  0.9118800E+02  0.7818608E-02  0.1130116E+00
         25   -1    0    0    0    0  0.00000000000E+00  0.00000000000E+00  0.99999998245E-14  0.12500000000E+03  0.12500000000E+03 0.  0.
        -11    1    3    3    0    0  0.25877702215E+02 -0.23803867095E+02 -0.15008715854E+02  0.38230107409E+02  0.51100000000E-03 0. -1.
         23    2    1    0    0    0 -0.21819582494E+02 -0.12655222306E+02  0.14979250270E+02  0.95663559001E+02  0.91054323073E+02 0.  0.
         11    1    3    3    0    0 -0.47697284710E+02  0.11148644789E+02  0.29987966124E+02  0.57433451592E+02  0.51100000000E-03 0.  1.
         22    1    1    0    0    0  0.21819582494E+02  0.12655222306E+02 -0.14979250270E+02  0.29336440999E+02  0.00000000000E+00 0.  1.
</event>
<event>
 5    1  0.1096978E-009  0.9118800E+02  0.7818608E-02  0.1130116E+00
         25   -1    0    0    0    0  0.00000000000E+00  0.00000000000E+00  0.99999998245E-14  0.12500000000E+03  0.12500000000E+03 0.  0.
        -11    1    3    3    0    0 -0.17278601691E+02  0.26567336823E+01  0.50205993463E+02  0.53162487622E+02  0.51100000000E-03 0.  1.
         23    2    1    0    0    0 -0.26516662457E+02 -0.58098097405E+01  0.87377012874E+01  0.96482729779E+02  0.92172026368E+02 0.  0.
         11    1    3    3    0    0 -0.92380607656E+01 -0.84665434228E+01 -0.41468292176E+02  0.43320242157E+02  0.51100000000E-03 0. -1.
         22    1    1    0    0    0  0.26516662457E+02  0.58098097405E+01 -0.87377012874E+01  0.28517270221E+02  0.00000000000E+00 0.  1.
</event>
<event>
 5    1  0.1096978E-009  0.9118800E+02  0.7818608E-02  0.1130116E+00
         25   -1    0    0    0    0  0.00000000000E+00  0.00000000000E+00  0.99999998245E-14  0.12500000000E+03  0.12500000000E+03 0.  0.
        -11    1    3    3    0    0  0.37552276371E+02  0.35961773042E+02  0.31507845403E+02  0.60796109277E+02  0.51100000000E-03 0. -1.
         23    2    1    0    0    0  0.25157183197E+02  0.13541977874E+02  0.85981371953E+01  0.95163830769E+02  0.90365688690E+02 0.  0.
         11    1    3    3    0    0 -0.12395093175E+02 -0.22419795168E+02 -0.22909708207E+02  0.34367721493E+02  0.51100000000E-03 0.  1.
         22    1    1    0    0    0 -0.25157183197E+02 -0.13541977874E+02 -0.85981371953E+01  0.29836169231E+02  0.00000000000E+00 0. -1.
</event>
<event>
 5    1  0.1096978E-009  0.9118800E+02  0.7818608E-02  0.1130116E+00
         25   -1    0    0    0    0  0.00000000000E+00  0.00000000000E+00  0.99999998245E-14  0.12500000000E+03  0.12500000000E+03 0.  0.
        -11    1    3    3    0    0 -0.34854953070E+02 -0.22017636195E+02 -0.46280786739E+02  0.61980281368E+02  0.51100000000E-03 0. -1.
         23    2    1    0    0    0 -0.11186231647E+02 -0.60613846486E+01 -0.22581169400E+02  0.99081254394E+02  0.95631132998E+02 0.  0.
         11    1    3    3    0    0  0.23668721422E+02  0.15956251547E+02  0.23699617339E+02  0.37100973026E+02  0.51100000000E-03 0.  1.
         22    1    1    0    0    0  0.11186231647E+02  0.60613846486E+01  0.22581169400E+02  0.25918745606E+02  0.00000000000E+00 0. -1.
</event>
<event>
 5    1  0.1096978E-009  0.9118800E+02  0.7818608E-02  0.1130116E+00
         25   -1    0    0    0    0  0.00000000000E+00  0.00000000000E+00  0.99999998245E-14  0.12500000000E+03  0.12500000000E+03 0.  0.
        -11    1    3    3    0    0  0.35428963844E+02 -0.44661577715E+02  0.90941492821E+01  0.57728429344E+02  0.51100000000E-03 0. -1.
         23    2    1    0    0    0  0.13409750525E+02 -0.23099800780E+02 -0.12650577212E+02  0.95445654989E+02  0.90754689947E+02 0.  0.
         11    1    3    3    0    0 -0.22019213320E+02  0.21561776935E+02 -0.21744726494E+02  0.37717225646E+02  0.51100000000E-03 0.  1.
         22    1    1    0    0    0 -0.13409750525E+02  0.23099800780E+02  0.12650577212E+02  0.29554345011E+02  0.00000000000E+00 0. -1.
</event>
<event>
 5    1  0.1096978E-009  0.9118800E+02  0.7818608E-02  0.1130116E+00
         25   -1    0    0    0    0  0.00000000000E+00  0.00000000000E+00  0.99999998245E-14  0.12500000000E+03  0.12500000000E+03 0.  0.
        -11    1    3    3    0    0 -0.89997885988E+01 -0.40157640428E+02  0.43096930174E+02  0.59590080301E+02  0.51100000000E-03 0.  1.
         23    2    1    0    0    0  0.92786227179E+01 -0.18787738700E+02  0.16067168366E+02  0.98594965171E+02  0.94993374994E+02 0.  0.
         11    1    3    3    0    0  0.18278411317E+02  0.21369901729E+02 -0.27029761807E+02  0.39004884871E+02  0.51100000000E-03 0. -1.
         22    1    1    0    0    0 -0.92786227179E+01  0.18787738700E+02 -0.16067168366E+02  0.26405034829E+02  0.00000000000E+00 0.  1.
</event>
<event>
 5    1  0.1096978E-009  0.9118800E+02  0.7818608E-02  0.1130116E+00
         25   -1    0    0    0    0  0.00000000000E+00  0.00000000000E+00  0.99999998245E-14  0.12500000000E+03  0.12500000000E+03 0.  0.
        -11    1    3    3    0    0  0.28769270244E+01  0.34813216502E+02  0.50089261495E+01  0.35289178140E+02  0.51100000000E-03 0.  1.
         23    2    1    0    0    0 -0.12544629369E+02 -0.23628976470E+02  0.11096179847E+02  0.96037585352E+02  0.91566349376E+02 0.  0.
         11    1    3    3    0    0 -0.15421556393E+02 -0.58442192973E+02  0.60872536977E+01  0.60748407213E+02  0.51100000000E-03 0. -1.
         22    1    1    0    0    0  0.12544629369E+02  0.23628976470E+02 -0.11096179847E+02  0.28962414648E+02  0.00000000000E+00 0. -1.
</event>
<event>
 5    1  0.1096978E-009  0.9118800E+02  0.7818608E-02  0.1130116E+00
         25   -1    0    0    0    0  0.00000000000E+00  0.00000000000E+00  0.99999998245E-14  0.12500000000E+03  0.12500000000E+03 0.  0.
        -11    1    3    3    0    0  0.28000669460E+02 -0.31414559880E+02 -0.32218444792E+01  0.42205359195E+02  0.51100000000E-03 0.  1.
         23    2    1    0    0    0  0.56957943348E+01  0.11688699611E+02 -0.26085309621E+02  0.95853625445E+02  0.91314874808E+02 0.  0.
         11    1    3    3    0    0 -0.22304875125E+02  0.43103259491E+02 -0.22863465142E+02  0.53648266250E+02  0.51100000000E-03 0. -1.
         22    1    1    0    0    0 -0.56957943348E+01 -0.11688699611E+02  0.26085309621E+02  0.29146374555E+02  0.00000000000E+00 0. -1.
</event>
<event>
 5    1  0.1096978E-009  0.9118800E+02  0.7818608E-02  0.1130116E+00
         25   -1    0    0    0    0  0.00000000000E+00  0.00000000000E+00  0.99999998245E-14  0.12500000000E+03  0.12500000000E+03 0.  0.
        -11    1    3    3    0    0 -0.21706136771E+02 -0.19703868672E+02  0.33111110082E+02  0.44223799309E+02  0.51100000000E-03 0. -1.
         23    2    1    0    0    0  0.17802034276E+02  0.11288693808E+02  0.19582296520E+02  0.96228253976E+02  0.91826267996E+02 0.  0.
         11    1    3    3    0    0  0.39508171047E+02  0.30992562481E+02 -0.13528813562E+02  0.52004454667E+02  0.51100000000E-03 0.  1.
         22    1    1    0    0    0 -0.17802034276E+02 -0.11288693808E+02 -0.19582296520E+02  0.28771746024E+02  0.00000000000E+00 0.  1.
</event>
<event>
 5    1  0.1096978E-009  0.9118800E+02  0.7818608E-02  0.1130116E+00
         25   -1    0    0    0    0  0.00000000000E+00  0.00000000000E+00  0.99999998245E-14  0.12500000000E+03  0.12500000000E+03 0.  0.
        -11    1    3    3    0    0  0.25361612748E+02  0.43386308914E+02 -0.23795169923E+02  0.55603896574E+02  0.51100000000E-03 0.  1.
         23    2    1    0    0    0  0.19334446368E+02  0.69310467747E+01 -0.25088111414E+02  0.92576651004E+02  0.86713105994E+02 0.  0.
         11    1    3    3    0    0 -0.60271663799E+01 -0.36455262139E+02 -0.12929414917E+01  0.36972754430E+02  0.51100000000E-03 0. -1.
         22    1    1    0    0    0 -0.19334446368E+02 -0.69310467747E+01  0.25088111414E+02  0.32423348996E+02  0.00000000000E+00 0.  1.
</event>
<event>
 5    1  0.1096978E-009  0.9118800E+02  0.7818608E-02  0.1130116E+00
         25   -1    0    0    0    0  0.00000000000E+00  0.00000000000E+00  0.99999998245E-14  0.12500000000E+03  0.12500000000E+03 0.  0.
        -11    1    3    3    0    0  0.26726589190E+02 -0.42070617860E+02  0.19455755402E+02  0.53504895808E+02  0.51100000000E-03 0.  1.
         23    2    1    0    0    0  0.28266635940E+02 -0.39577153339E+01 -0.28880787207E+00  0.96456180563E+02  0.92136014353E+02 0.  0.
         11    1    3    3    0    0  0.15400467504E+01  0.38112902526E+02 -0.19744563274E+02  0.42951284755E+02  0.51100000000E-03 0. -1.
         22    1    1    0    0    0 -0.28266635940E+02  0.39577153339E+01  0.28880787207E+00  0.28543819437E+02  0.00000000000E+00 0.  1.
</event>
<event>
 5    1  0.1096978E-009  0.9118800E+02  0.7818608E-02  0.1130116E+00
         25   -1    0    0    0    0  0.00000000000E+00  0.00000000000E+00  0.99999998245E-14  0.12500000000E+03  0.12500000000E+03 0.  0.
        -11    1    3    3    0    0 -0.77413581208E+01  0.14316181611E+02  0.35782583763E+02  0.39309985786E+02  0.51100000000E-03 0. -1.
         23    2    1    0    0    0  0.62191792943E+01  0.19742915215E+02 -0.19485724238E+02  0.96571944468E+02  0.92292936441E+02 0.  0.
         11    1    3    3    0    0  0.13960537415E+02  0.54267336042E+01 -0.55268308001E+02  0.57261958682E+02  0.51100000000E-03 0.  1.
         22    1    1    0    0    0 -0.62191792943E+01 -0.19742915215E+02  0.19485724238E+02  0.28428055532E+02  0.00000000000E+00 0.  1.
</event>
<event>
 5    1  0.1096978E-009  0.9118800E+02  0.7818608E-02  0.1130116E+00
         25   -1    0    0    0    0  0.00000000000E+00  0.00000000000E+00  0.99999998245E-14  0.12500000000E+03  0.12500000000E+03 0.  0.
        -11    1    3    3    0    0 -0.56949850247E+01  0.39447118200E+02 -0.79442880551E+01  0.40640124283E+02  0.51100000000E-03 0. -1.
         23    2    1    0    0    0  0.11956151823E+02 -0.93223153256E+01 -0.25446821108E+02  0.95379131782E+02  0.90663018621E+02 0.  0.
         11    1    3    3    0    0  0.17651136848E+02 -0.48769433526E+02 -0.17502533053E+02  0.54739007499E+02  0.51100000000E-03 0.  1.
         22    1    1    0    0    0 -0.11956151823E+02  0.93223153256E+01  0.25446821108E+02  0.29620868218E+02  0.00000000000E+00 0.  1.
</event>
<event>
 5    1  0.1096978E-009  0.9118800E+02  0.7818608E-02  0.1130116E+00
         25   -1    0    0    0    0  0.00000000000E+00  0.00000000000E+00  0.99999998245E-14  0.12500000000E+03  0.12500000000E+03 0.  0.
        -11    1    3    3    0    0 -0.34472092944E+01  0.10241809738E+02 -0.38276414312E+02  0.39772626409E+02  0.51100000000E-03 0. -1.
         23    2    1    0    0    0 -0.53798274633E+01 -0.18043884491E+02  0.15530882288E+02  0.10059236563E+03  0.97586327970E+02 0.  0.
         11    1    3    3    0    0 -0.19326181689E+01 -0.28285694229E+02  0.53807296599E+02  0.60819739218E+02  0.51100000000E-03 0.  1.
         22    1    1    0    0    0  0.53798274633E+01  0.18043884491E+02 -0.15530882288E+02  0.24407634373E+02  0.00000000000E+00 0.  1.
</event>
<event>
 5    1  0.1096978E-009  0.9118800E+02  0.7818608E-02  0.1130116E+00
         25   -1    0    0    0    0  0.00000000000E+00  0.00000000000E+00  0.99999998245E-14  0.12500000000E+03  0.12500000000E+03 0.  0.
        -11    1    3    3    0    0  0.41555757987E+01  0.56121325659E+02  0.13899695858E+02  0.57966141403E+02  0.51100000000E-03 0. -1.
         23    2    1    0    0    0 -0.13836063996E+02  0.31252038047E+02  0.12206551886E+02  0.88707763117E+02  0.80944059568E+02 0.  0.
         11    1    3    3    0    0 -0.17991639795E+02 -0.24869287612E+02 -0.16931439721E+01  0.30741621714E+02  0.51100000000E-03 0.  1.
         22    1    1    0    0    0  0.13836063996E+02 -0.31252038047E+02 -0.12206551886E+02  0.36292236883E+02  0.00000000000E+00 0. -1.
</event>
<event>
 5    1  0.1096978E-009  0.9118800E+02  0.7818608E-02  0.1130116E+00
         25   -1    0    0    0    0  0.00000000000E+00  0.00000000000E+00  0.99999998245E-14  0.12500000000E+03  0.12500000000E+03 0.  0.
        -11    1    3    3    0    0  0.39011102149E+01  0.20058786236E+02 -0.44179910484E+02  0.48676873942E+02  0.51100000000E-03 0. -1.
         23    2    1    0    0    0  0.14659770867E+02  0.25721046931E+02  0.91351847441E+00  0.95380485266E+02  0.90664884693E+02 0.  0.
         11    1    3    3    0    0  0.10758660652E+02  0.56622606951E+01  0.45093428958E+02  0.46703611324E+02  0.51100000000E-03 0.  1.
         22    1    1    0    0    0 -0.14659770867E+02 -0.25721046931E+02 -0.91351847441E+00  0.29619514734E+02  0.00000000000E+00 0.  1.
</event>
<event>
 5    1  0.1096978E-009  0.9118800E+02  0.7818608E-02  0.1130116E+00
         25   -1    0    0    0    0  0.00000000000E+00  0.00000000000E+00  0.99999998245E-14  0.12500000000E+03  0.12500000000E+03 0.  0.
        -11    1    3    3    0    0  0.37248946910E+02  0.29821228710E+02  0.34632905541E+02  0.58959544386E+02  0.51100000000E-03 0.  1.
         23    2    1    0    0    0  0.92921783618E+01  0.97479588196E+01  0.27887264994E+02  0.94031195879E+02  0.88785128088E+02 0.  0.
         11    1    3    3    0    0 -0.27956768548E+02 -0.20073269891E+02 -0.67456405472E+01  0.35071651493E+02  0.51100000000E-03 0. -1.
         22    1    1    0    0    0 -0.92921783618E+01 -0.97479588196E+01 -0.27887264994E+02  0.30968804121E+02  0.00000000000E+00 0.  1.
</event>
<event>
 5    1  0.1096978E-009  0.9118800E+02  0.7818608E-02  0.1130116E+00
         25   -1    0    0    0    0  0.00000000000E+00  0.00000000000E+00  0.99999998245E-14  0.12500000000E+03  0.12500000000E+03 0.  0.
        -11    1    3    3    0    0 -0.17355935554E+02  0.30659873194E+02  0.40716186039E+02  0.53842958027E+02  0.51100000000E-03 0. -1.
         23    2    1    0    0    0 -0.11739971762E+02  0.29618099065E+02  0.18932523155E+01  0.93083810793E+02  0.87441138477E+02 0.  0.
         11    1    3    3    0    0  0.56159637912E+01 -0.10417741297E+01 -0.38822933724E+02  0.39240852766E+02  0.51100000000E-03 0.  1.
         22    1    1    0    0    0  0.11739971762E+02 -0.29618099065E+02 -0.18932523155E+01  0.31916189207E+02  0.00000000000E+00 0. -1.
</event>
<event>
 5    1  0.1096978E-009  0.9118800E+02  0.7818608E-02  0.1130116E+00
         25   -1    0    0    0    0  0.00000000000E+00  0.00000000000E+00  0.99999998245E-14  0.12500000000E+03  0.12500000000E+03 0.  0.
        -11    1    3    3    0    0  0.43804267038E+01  0.22261275497E+02 -0.28796386684E+02  0.36660392949E+02  0.51100000000E-03 0.  1.
         23    2    1    0    0    0 -0.11812567942E+01  0.25174607800E+02  0.24219403595E+02  0.90046663164E+02  0.82985937309E+02 0.  0.
         11    1    3    3    0    0 -0.55616834979E+01  0.29133323027E+01  0.53015790278E+02  0.53386270215E+02  0.51100000000E-03 0. -1.
         22    1    1    0    0    0  0.11812567942E+01 -0.25174607800E+02 -0.24219403595E+02  0.34953336836E+02  0.00000000000E+00 0. -1.
</event>
<event>
 5    1  0.1096978E-009  0.9118800E+02  0.7818608E-02  0.1130116E+00
         25   -1    0    0    0    0  0.00000000000E+00  0.00000000000E+00  0.99999998245E-14  0.12500000000E+03  0.12500000000E+03 0.  0.
        -11    1    3    3    0    0 -0.14412760810E+01  0.80790761087E+01 -0.27187334299E+02  0.28398941777E+02  0.51100000000E-03 0. -1.
         23    2    1    0    0    0 -0.81052398905E+01 -0.24294798873E+02  0.24373728516E+02  0.89644508097E+02  0.82377952294E+02 0.  0.
         11    1    3    3    0    0 -0.66639638094E+01 -0.32373874982E+02  0.51561062815E+02  0.61245566320E+02  0.51100000000E-03 0.  1.
         22    1    1    0    0    0  0.81052398905E+01  0.24294798873E+02 -0.24373728516E+02  0.35355491903E+02  0.00000000000E+00 0.  1.
</event>
<event>
 5    1  0.1096978E-009  0.9118800E+02  0.7818608E-02  0.1130116E+00
         25   -1    0    0    0    0  0.00000000000E+00  0.00000000000E+00  0.99999998245E-14  0.12500000000E+03  0.12500000000E+03 0.  0.
        -11    1    3    3    0    0  0.36439761736E+02 -0.24431984480E+02  0.28269070078E+02  0.52191171901E+02  0.51100000000E-03 0.  1.
         23    2    1    0    0    0  0.57257819171E+01 -0.52873121262E+01  0.35119716085E+02  0.89025916189E+02  0.81433893726E+02 0.  0.
         11    1    3    3    0    0 -0.30713979819E+02  0.19144672354E+02  0.68506460073E+01  0.36834744289E+02  0.51100000000E-03 0. -1.
         22    1    1    0    0    0 -0.57257819171E+01  0.52873121262E+01 -0.35119716085E+02  0.35974083811E+02  0.00000000000E+00 0.  1.
</event>
<event>
 5    1  0.1096978E-009  0.9118800E+02  0.7818608E-02  0.1130116E+00
         25   -1    0    0    0    0  0.00000000000E+00  0.00000000000E+00  0.99999998245E-14  0.12500000000E+03  0.12500000000E+03 0.  0.
        -11    1    3    3    0    0  0.19684604310E+02 -0.25013073043E+02  0.44377528509E+02  0.54612292634E+02  0.51100000000E-03 0. -1.
         23    2    1    0    0    0  0.10227675446E+02  0.97325874142E+01  0.26857234772E+02  0.94657955534E+02  0.89663196928E+02 0.  0.
         11    1    3    3    0    0 -0.94569288643E+01  0.34745660458E+02 -0.17520293737E+02  0.40045662900E+02  0.51100000000E-03 0.  1.
         22    1    1    0    0    0 -0.10227675446E+02 -0.97325874142E+01 -0.26857234772E+02  0.30342044466E+02  0.00000000000E+00 0. -1.
</event>
<event>
 5    1  0.1096978E-009  0.9118800E+02  0.7818608E-02  0.1130116E+00
         25   -1    0    0    0    0  0.00000000000E+00  0.00000000000E+00  0.99999998245E-14  0.12500000000E+03  0.12500000000E+03 0.  0.
        -11    1    3    3    0    0  0.55757417672E+02  0.25897172972E+02  0.80422480124E+01  0.62001862445E+02  0.51100000000E-03 0. -1.
         23    2    1    0    0    0  0.20858241008E+02  0.15745206718E+02  0.30551184191E+01  0.98688187043E+02  0.95115964805E+02 0.  0.
         11    1    3    3    0    0 -0.34899176664E+02 -0.10151966254E+02 -0.49871295932E+01  0.36686324598E+02  0.51100000000E-03 0.  1.
         22    1    1    0    0    0 -0.20858241008E+02 -0.15745206718E+02 -0.30551184191E+01  0.26311812957E+02  0.00000000000E+00 0. -1.
</event>
<event>
 5    1  0.1096978E-009  0.9118800E+02  0.7818608E-02  0.1130116E+00
         25   -1    0    0    0    0  0.00000000000E+00  0.00000000000E+00  0.99999998245E-14  0.12500000000E+03  0.12500000000E+03 0.  0.
        -11    1    3    3    0    0 -0.15527266205E+02 -0.16504420642E+02 -0.54870360508E+02  0.59365380139E+02  0.51100000000E-03 0.  1.
         23    2    1    0    0    0 -0.11419215528E+02  0.56046307330E+01 -0.13508781779E+02  0.10644474322E+03  0.10481500754E+03 0.  0.
         11    1    3    3    0    0  0.41080506771E+01  0.22109051375E+02  0.41361578730E+02  0.47079363083E+02  0.51100000000E-03 0. -1.
         22    1    1    0    0    0  0.11419215528E+02 -0.56046307330E+01  0.13508781779E+02  0.18555256777E+02  0.00000000000E+00 0.  1.
</event>
<event>
 5    1  0.1096978E-009  0.9118800E+02  0.7818608E-02  0.1130116E+00
         25   -1    0    0    0    0  0.00000000000E+00  0.00000000000E+00  0.99999998245E-14  0.12500000000E+03  0.12500000000E+03 0.  0.
        -11    1    3    3    0    0  0.15009566356E+01  0.48785529520E+02  0.16371127670E+02  0.51481011867E+02  0.51100000000E-03 0. -1.
         23    2    1    0    0    0 -0.18102341362E+02  0.87714609368E+01  0.20561101536E+02  0.96235574296E+02  0.91836232359E+02 0.  0.
         11    1    3    3    0    0 -0.19603297997E+02 -0.40014068583E+02  0.41899738657E+01  0.44754562429E+02  0.51100000000E-03 0.  1.
         22    1    1    0    0    0  0.18102341362E+02 -0.87714609368E+01 -0.20561101536E+02  0.28764425704E+02  0.00000000000E+00 0.  1.
</event>
<event>
 5    1  0.1096978E-009  0.9118800E+02  0.7818608E-02  0.1130116E+00
         25   -1    0    0    0    0  0.00000000000E+00  0.00000000000E+00  0.99999998245E-14  0.12500000000E+03  0.12500000000E+03 0.  0.
        -11    1    3    3    0    0  0.15404966872E+02 -0.32402411972E+02 -0.29039852804E+02  0.46157798443E+02  0.51100000000E-03 0. -1.
         23    2    1    0    0    0  0.19946581726E+02 -0.11922047039E+02  0.16636245413E+02  0.96420881932E+02  0.92088112604E+02 0.  0.
         11    1    3    3    0    0  0.45416148540E+01  0.20480364933E+02  0.45676098217E+02  0.50263083489E+02  0.51100000000E-03 0.  1.
         22    1    1    0    0    0 -0.19946581726E+02  0.11922047039E+02 -0.16636245413E+02  0.28579118068E+02  0.00000000000E+00 0. -1.
</event>
<event>
 5    1  0.1096978E-009  0.9118800E+02  0.7818608E-02  0.1130116E+00
         25   -1    0    0    0    0  0.00000000000E+00  0.00000000000E+00  0.99999998245E-14  0.12500000000E+03  0.12500000000E+03 0.  0.
        -11    1    3    3    0    0  0.25220445869E+02 -0.19880913888E+02  0.41099540867E+01  0.32376123142E+02  0.51100000000E-03 0.  1.
         23    2    1    0    0    0 -0.27672413627E+02  0.11045316192E+02 -0.63562926872E+01  0.94534216858E+02  0.89490525837E+02 0.  0.
         11    1    3    3    0    0 -0.52892859496E+02  0.30926230080E+02 -0.10466246774E+02  0.62158093716E+02  0.51100000000E-03 0. -1.
         22    1    1    0    0    0  0.27672413627E+02 -0.11045316192E+02  0.63562926872E+01  0.30465783142E+02  0.00000000000E+00 0. -1.
</event>
<event>
 5    1  0.1096978E-009  0.9118800E+02  0.7818608E-02  0.1130116E+00
         25   -1    0    0    0    0  0.00000000000E+00  0.00000000000E+00  0.99999998245E-14  0.12500000000E+03  0.12500000000E+03 0.  0.
        -11    1    3    3    0    0 -0.35887841420E+02 -0.10163376371E+02  0.36926781436E+02  0.52486365549E+02  0.51100000000E-03 0.  1.
         23    2    1    0    0    0  0.10776859692E+01  0.11174067067E+02  0.26201234059E+02  0.96495160971E+02  0.92188883509E+02 0.  0.
         11    1    3    3    0    0  0.36965527390E+02  0.21337443438E+02 -0.10725547377E+02  0.44008795422E+02  0.51100000000E-03 0. -1.
         22    1    1    0    0    0 -0.10776859692E+01 -0.11174067067E+02 -0.26201234059E+02  0.28504839029E+02  0.00000000000E+00 0.  1.
</event>
<event>
 5    1  0.1096978E-009  0.9118800E+02  0.7818608E-02  0.1130116E+00
         25   -1    0    0    0    0  0.00000000000E+00  0.00000000000E+00  0.99999998245E-14  0.12500000000E+03  0.12500000000E+03 0.  0.
        -11    1    3    3    0    0 -0.16948593697E+02  0.36671888166E+02  0.38065047416E+01  0.40577970484E+02  0.51100000000E-03 0.  1.
         23    2    1    0    0    0  0.25006936264E+02  0.81515055942E+01 -0.15045396198E+02  0.94698880358E+02  0.89720232331E+02 0.  0.
         11    1    3    3    0    0  0.41955529962E+02 -0.28520382572E+02 -0.18851900940E+02  0.54120909875E+02  0.51100000000E-03 0. -1.
         22    1    1    0    0    0 -0.25006936264E+02 -0.81515055942E+01  0.15045396198E+02  0.30301119642E+02  0.00000000000E+00 0. -1.
</event>
<event>
 5    1  0.1096978E-009  0.9118800E+02  0.7818608E-02  0.1130116E+00
         25   -1    0    0    0    0  0.00000000000E+00  0.00000000000E+00  0.99999998245E-14  0.12500000000E+03  0.12500000000E+03 0.  0.
        -11    1    3    3    0    0 -0.30887947536E+02  0.37071697801E+01  0.16644264388E+02  0.35282289438E+02  0.51100000000E-03 0.  1.
         23    2    1    0    0    0  0.25724821904E+02  0.13010787195E+02 -0.32128316554E+01  0.95993632894E+02  0.91506328871E+02 0.  0.
         11    1    3    3    0    0  0.56612769440E+02  0.93036174152E+01 -0.19857096043E+02  0.60711343456E+02  0.51100000000E-03 0. -1.
         22    1    1    0    0    0 -0.25724821904E+02 -0.13010787195E+02  0.32128316554E+01  0.29006367106E+02  0.00000000000E+00 0. -1.
</event>
<event>
 4    1  0.1096978E-009  0.9118800E+02  0.7818608E-02  0.1130116E+00
         25   -1    0    0    0    0  0.00000000000E+00  0.00000000000E+00  0.99999998245E-14  0.12500000000E+03  0.12500000000E+03 0.  0.
        -11    1    1    0    0    0  0.82518819815E+01  0.39612237041E+02  0.47478851917E+01  0.40740217153E+02  0.51100000000E-03 0.  1.
         11    1    1    0    0    0 -0.17825911501E+02  0.17888778853E+02  0.30904727807E+01  0.25442534307E+02  0.51100000000E-03 0. -1.
         22    1    1    0    0    0  0.95740295193E+01 -0.57501015894E+02 -0.78383579724E+01  0.58817248540E+02  0.00000000000E+00 0.  1.
</event>
<event>
 5    1  0.1096978E-009  0.9118800E+02  0.7818608E-02  0.1130116E+00
         25   -1    0    0    0    0  0.00000000000E+00  0.00000000000E+00  0.99999998245E-14  0.12500000000E+03  0.12500000000E+03 0.  0.
        -11    1    3    3    0    0 -0.28057533467E+02 -0.30736307499E+02  0.14104098002E+01  0.41640545614E+02  0.51100000000E-03 0.  1.
         23    2    1    0    0    0  0.16497603601E+02 -0.14063872907E+01  0.20815051840E+02  0.98402721326E+02  0.94740067191E+02 0.  0.
         11    1    3    3    0    0  0.44555137069E+02  0.29329920208E+02  0.19404642039E+02  0.56762175712E+02  0.51100000000E-03 0. -1.
         22    1    1    0    0    0 -0.16497603601E+02  0.14063872907E+01 -0.20815051840E+02  0.26597278674E+02  0.00000000000E+00 0. -1.
</event>
<event>
 5    1  0.1096978E-009  0.9118800E+02  0.7818608E-02  0.1130116E+00
         25   -1    0    0    0    0  0.00000000000E+00  0.00000000000E+00  0.99999998245E-14  0.12500000000E+03  0.12500000000E+03 0.  0.
        -11    1    3    3    0    0 -0.50716499445E+02  0.29508927616E+02  0.15723126553E+02  0.60746661092E+02  0.51100000000E-03 0.  1.
         23    2    1    0    0    0 -0.17000960113E+02  0.19665850809E+02  0.12890664915E+02  0.95983667103E+02  0.91492714332E+02 0.  0.
         11    1    3    3    0    0  0.33715539332E+02 -0.98430768066E+01 -0.28324616378E+01  0.35237006011E+02  0.51100000000E-03 0. -1.
         22    1    1    0    0    0  0.17000960113E+02 -0.19665850809E+02 -0.12890664915E+02  0.29016332897E+02  0.00000000000E+00 0.  1.
</event>
<event>
 5    1  0.1096978E-009  0.9118800E+02  0.7818608E-02  0.1130116E+00
         25   -1    0    0    0    0  0.00000000000E+00  0.00000000000E+00  0.99999998245E-14  0.12500000000E+03  0.12500000000E+03 0.  0.
        -11    1    3    3    0    0  0.31291252608E+02 -0.12053635794E+02 -0.11966537319E+02  0.35603800939E+02  0.51100000000E-03 0. -1.
         23    2    1    0    0    0 -0.12790039262E+02  0.30943631104E+01  0.26090929307E+02  0.95778487727E+02  0.91211961561E+02 0.  0.
         11    1    3    3    0    0 -0.44081291871E+02  0.15147998904E+02  0.38057466626E+02  0.60174686788E+02  0.51100000000E-03 0.  1.
         22    1    1    0    0    0  0.12790039262E+02 -0.30943631104E+01 -0.26090929307E+02  0.29221512273E+02  0.00000000000E+00 0.  1.
</event>
<event>
 5    1  0.1096978E-009  0.9118800E+02  0.7818608E-02  0.1130116E+00
         25   -1    0    0    0    0  0.00000000000E+00  0.00000000000E+00  0.99999998245E-14  0.12500000000E+03  0.12500000000E+03 0.  0.
        -11    1    3    3    0    0 -0.16430511844E+02  0.31912292969E+02 -0.27805826919E+01  0.36001219457E+02  0.51100000000E-03 0. -1.
         23    2    1    0    0    0 -0.11496474245E+02 -0.25622910191E+02  0.10079297879E+02  0.95162193572E+02  0.90363423978E+02 0.  0.
         11    1    3    3    0    0  0.49340375997E+01 -0.57535203160E+02  0.12859880570E+02  0.59160974115E+02  0.51100000000E-03 0.  1.
         22    1    1    0    0    0  0.11496474245E+02  0.25622910191E+02 -0.10079297879E+02  0.29837806428E+02  0.00000000000E+00 0.  1.
</event>
<event>
 4    1  0.1096978E-009  0.9118800E+02  0.7818608E-02  0.1130116E+00
         25   -1    0    0    0    0  0.00000000000E+00  0.00000000000E+00  0.99999998245E-14  0.12500000000E+03  0.12500000000E+03 0.  0.
        -11    1    1    0    0    0 -0.25516176182E+02 -0.87879124298E+01 -0.52544353732E+02  0.59069550203E+02  0.51100000000E-03 0.  1.
         11    1    1    0    0    0 -0.55835708207E+01  0.44136445963E+01  0.41506175604E+01  0.82391837051E+01  0.51100000000E-03 0. -1.
         22    1    1    0    0    0  0.31099747002E+02  0.43742678335E+01  0.48393736171E+02  0.57691266092E+02  0.00000000000E+00 0.  1.
</event>
<event>
 5    1  0.1096978E-009  0.9118800E+02  0.7818608E-02  0.1130116E+00
         25   -1    0    0    0    0  0.00000000000E+00  0.00000000000E+00  0.99999998245E-14  0.12500000000E+03  0.12500000000E+03 0.  0.
        -11    1    3    3    0    0 -0.33453235429E+02 -0.58583988346E+01 -0.23908512458E+01  0.34046379654E+02  0.51100000000E-03 0. -1.
         23    2    1    0    0    0  0.22864644976E+02 -0.75574617181E-01  0.19701385628E+02  0.94818179361E+02  0.89886288389E+02 0.  0.
         11    1    3    3    0    0  0.56317880406E+02  0.57828242174E+01  0.22092236874E+02  0.60771799707E+02  0.51100000000E-03 0.  1.
         22    1    1    0    0    0 -0.22864644976E+02  0.75574617181E-01 -0.19701385628E+02  0.30181820639E+02  0.00000000000E+00 0.  1.
</event>
<event>
 5    1  0.1096978E-009  0.9118800E+02  0.7818608E-02  0.1130116E+00
         25   -1    0    0    0    0  0.00000000000E+00  0.00000000000E+00  0.99999998245E-14  0.12500000000E+03  0.12500000000E+03 0.  0.
        -11    1    3    3    0    0  0.45822758162E+01  0.58189803197E+02  0.18104206028E+02  0.61113114173E+02  0.51100000000E-03 0. -1.
         23    2    1    0    0    0 -0.53561067725E+01  0.27711604859E+02  0.14191217031E+02  0.93408678969E+02  0.87904321523E+02 0.  0.
         11    1    3    3    0    0 -0.99383825886E+01 -0.30478198338E+02 -0.39129889970E+01  0.32295564797E+02  0.51100000000E-03 0.  1.
         22    1    1    0    0    0  0.53561067725E+01 -0.27711604859E+02 -0.14191217031E+02  0.31591321031E+02  0.00000000000E+00 0. -1.
</event>
<event>
 5    1  0.1096978E-009  0.9118800E+02  0.7818608E-02  0.1130116E+00
         25   -1    0    0    0    0  0.00000000000E+00  0.00000000000E+00  0.99999998245E-14  0.12500000000E+03  0.12500000000E+03 0.  0.
        -11    1    3    3    0    0  0.25275664784E+02  0.15188920219E+01  0.26651636320E+02  0.36762426226E+02  0.51100000000E-03 0. -1.
         23    2    1    0    0    0 -0.26645857294E+02  0.14154534887E+02  0.14312144321E+02  0.91605538725E+02  0.85301727305E+02 0.  0.
         11    1    3    3    0    0 -0.51921522078E+02  0.12635642865E+02 -0.12339491999E+02  0.54843112499E+02  0.51100000000E-03 0.  1.
         22    1    1    0    0    0  0.26645857294E+02 -0.14154534887E+02 -0.14312144321E+02  0.33394461275E+02  0.00000000000E+00 0.  1.
</event>
<event>
 5    1  0.1096978E-009  0.9118800E+02  0.7818608E-02  0.1130116E+00
         25   -1    0    0    0    0  0.00000000000E+00  0.00000000000E+00  0.99999998245E-14  0.12500000000E+03  0.12500000000E+03 0.  0.
        -11    1    3    3    0    0  0.97969888038E+01  0.38265836608E+02  0.14302756253E+02  0.42009809302E+02  0.51100000000E-03 0. -1.
         23    2    1    0    0    0  0.18194266381E+02 -0.17386616859E+02  0.77238160922E+01  0.98675427639E+02  0.95099195106E+02 0.  0.
         11    1    3    3    0    0  0.83972775773E+01 -0.55652453467E+02 -0.65789401604E+01  0.56665618337E+02  0.51100000000E-03 0.  1.
         22    1    1    0    0    0 -0.18194266381E+02  0.17386616859E+02 -0.77238160922E+01  0.26324572361E+02  0.00000000000E+00 0.  1.
</event>
<event>
 5    1  0.1096978E-009  0.9118800E+02  0.7818608E-02  0.1130116E+00
         25   -1    0    0    0    0  0.00000000000E+00  0.00000000000E+00  0.99999998245E-14  0.12500000000E+03  0.12500000000E+03 0.  0.
        -11    1    3    3    0    0  0.37127266454E+01 -0.27162336119E+02 -0.20861905973E+02  0.34449905133E+02  0.51100000000E-03 0.  1.
         23    2    1    0    0    0  0.10315416710E+02  0.28094012076E+02  0.28420951790E+01  0.94937417918E+02  0.90051954334E+02 0.  0.
         11    1    3    3    0    0  0.66026900642E+01  0.55256348196E+02  0.23704001152E+02  0.60487512785E+02  0.51100000000E-03 0. -1.
         22    1    1    0    0    0 -0.10315416710E+02 -0.28094012076E+02 -0.28420951790E+01  0.30062582082E+02  0.00000000000E+00 0. -1.
</event>
<event>
 5    1  0.1096978E-009  0.9118800E+02  0.7818608E-02  0.1130116E+00
         25   -1    0    0    0    0  0.00000000000E+00  0.00000000000E+00  0.99999998245E-14  0.12500000000E+03  0.12500000000E+03 0.  0.
        -11    1    3    3    0    0 -0.81023472777E+01  0.57339403550E+02  0.40354585418E+01  0.58049463018E+02  0.51100000000E-03 0.  1.
         23    2    1    0    0    0 -0.19051181223E+02  0.19713856726E+02 -0.10535637671E+01  0.97564737114E+02  0.93627903312E+02 0.  0.
         11    1    3    3    0    0 -0.10948833945E+02 -0.37625546824E+02 -0.50890223089E+01  0.39515274096E+02  0.51100000000E-03 0. -1.
         22    1    1    0    0    0  0.19051181223E+02 -0.19713856726E+02  0.10535637671E+01  0.27435262886E+02  0.00000000000E+00 0.  1.
</event>
<event>
 5    1  0.1096978E-009  0.9118800E+02  0.7818608E-02  0.1130116E+00
         25   -1    0    0    0    0  0.00000000000E+00  0.00000000000E+00  0.99999998245E-14  0.12500000000E+03  0.12500000000E+03 0.  0.
        -11    1    3    3    0    0 -0.67079363909E+01 -0.44907371584E+02  0.40126983786E+02  0.60595736329E+02  0.51100000000E-03 0.  1.
         23    2    1    0    0    0 -0.13575152127E+02 -0.19716185302E+02  0.15539466052E+02  0.96460768698E+02  0.92142238819E+02 0.  0.
         11    1    3    3    0    0 -0.68672157356E+01  0.25191186282E+02 -0.24587517734E+02  0.35865032369E+02  0.51100000000E-03 0. -1.
         22    1    1    0    0    0  0.13575152127E+02  0.19716185302E+02 -0.15539466052E+02  0.28539231302E+02  0.00000000000E+00 0.  1.
</event>
<event>
 5    1  0.1096978E-009  0.9118800E+02  0.7818608E-02  0.1130116E+00
         25   -1    0    0    0    0  0.00000000000E+00  0.00000000000E+00  0.99999998245E-14  0.12500000000E+03  0.12500000000E+03 0.  0.
        -11    1    3    3    0    0  0.12040022895E+02  0.30149360428E+02  0.28829852033E+02  0.43417812636E+02  0.51100000000E-03 0.  1.
         23    2    1    0    0    0  0.62304827410E+00 -0.20445803493E+02  0.20663819425E+02  0.95924021893E+02  0.91411188994E+02 0.  0.
         11    1    3    3    0    0 -0.11416974621E+02 -0.50595163922E+02 -0.81660326076E+01  0.52506209257E+02  0.51100000000E-03 0. -1.
         22    1    1    0    0    0 -0.62304827410E+00  0.20445803493E+02 -0.20663819425E+02  0.29075978107E+02  0.00000000000E+00 0. -1.
</event>
<event>
 5    1  0.1096978E-009  0.9118800E+02  0.7818608E-02  0.1130116E+00
         25   -1    0    0    0    0  0.00000000000E+00  0.00000000000E+00  0.99999998245E-14  0.12500000000E+03  0.12500000000E+03 0.  0.
        -11    1    3    3    0    0  0.23734544954E+02  0.12881073728E+02  0.37655098230E+02  0.46337426639E+02  0.51100000000E-03 0.  1.
         23    2    1    0    0    0  0.25078002741E+02 -0.13211201974E+02 -0.48624852727E+01  0.96240899839E+02  0.91843480768E+02 0.  0.
         11    1    3    3    0    0  0.13434577869E+01 -0.26092275702E+02 -0.42517583503E+02  0.49903473199E+02  0.51100000000E-03 0. -1.
         22    1    1    0    0    0 -0.25078002741E+02  0.13211201974E+02  0.48624852727E+01  0.28759100161E+02  0.00000000000E+00 0.  1.
</event>
<event>
 5    1  0.1096978E-009  0.9118800E+02  0.7818608E-02  0.1130116E+00
         25   -1    0    0    0    0  0.00000000000E+00  0.00000000000E+00  0.99999998245E-14  0.12500000000E+03  0.12500000000E+03 0.  0.
        -11    1    3    3    0    0 -0.45464912973E+02  0.66966031948E+01 -0.74679983450E+01  0.46558283963E+02  0.51100000000E-03 0.  1.
         23    2    1    0    0    0 -0.11976706311E+02 -0.24898577289E+02  0.97322946023E+01  0.95706686714E+02  0.91113509857E+02 0.  0.
         11    1    3    3    0    0  0.33488206662E+02 -0.31595180483E+02  0.17200292947E+02  0.49148402751E+02  0.51100000000E-03 0. -1.
         22    1    1    0    0    0  0.11976706311E+02  0.24898577289E+02 -0.97322946023E+01  0.29293313286E+02  0.00000000000E+00 0. -1.
</event>
<event>
 5    1  0.1096978E-009  0.9118800E+02  0.7818608E-02  0.1130116E+00
         25   -1    0    0    0    0  0.00000000000E+00  0.00000000000E+00  0.99999998245E-14  0.12500000000E+03  0.12500000000E+03 0.  0.
        -11    1    3    3    0    0 -0.46731927826E+02  0.92922598633E+01 -0.50340580846E+01  0.47912012197E+02  0.51100000000E-03 0.  1.
         23    2    1    0    0    0 -0.75264224085E+01  0.89496302874E+01 -0.28908458512E+02  0.93815999453E+02  0.88481635740E+02 0.  0.
         11    1    3    3    0    0  0.39205505417E+02 -0.34262957586E+00 -0.23874400428E+02  0.45903987257E+02  0.51100000000E-03 0. -1.
         22    1    1    0    0    0  0.75264224085E+01 -0.89496302874E+01  0.28908458512E+02  0.31184000547E+02  0.00000000000E+00 0.  1.
</event>
<event>
 5    1  0.1096978E-009  0.9118800E+02  0.7818608E-02  0.1130116E+00
         25   -1    0    0    0    0  0.00000000000E+00  0.00000000000E+00  0.99999998245E-14  0.12500000000E+03  0.12500000000E+03 0.  0.
        -11    1    3    3    0    0  0.28189200422E+02  0.30421916909E+02 -0.24929287865E+02  0.48390013872E+02  0.51100000000E-03 0.  1.
         23    2    1    0    0    0  0.11736149608E+02  0.21020552941E+02  0.17751365888E+02  0.95088265773E+02  0.90261101496E+02 0.  0.
         11    1    3    3    0    0 -0.16453050814E+02 -0.94013639676E+01  0.42680653753E+02  0.46698251901E+02  0.51100000000E-03 0. -1.
         22    1    1    0    0    0 -0.11736149608E+02 -0.21020552941E+02 -0.17751365888E+02  0.29911734227E+02  0.00000000000E+00 0. -1.
</event>
<event>
 5    1  0.1096978E-009  0.9118800E+02  0.7818608E-02  0.1130116E+00
         25   -1    0    0    0    0  0.00000000000E+00  0.00000000000E+00  0.99999998245E-14  0.12500000000E+03  0.12500000000E+03 0.  0.
        -11    1    3    3    0    0  0.35341355968E+02  0.38092700554E+02  0.33496717522E+02  0.61823097319E+02  0.51100000000E-03 0. -1.
         23    2    1    0    0    0  0.12376518085E+02  0.14270746793E+02  0.19799379567E+02  0.97634915583E+02  0.93721549793E+02 0.  0.
         11    1    3    3    0    0 -0.22964837884E+02 -0.23821953761E+02 -0.13697337955E+02  0.35811818263E+02  0.51100000000E-03 0.  1.
         22    1    1    0    0    0 -0.12376518085E+02 -0.14270746793E+02 -0.19799379567E+02  0.27365084417E+02  0.00000000000E+00 0. -1.
</event>
<event>
 5    1  0.1096978E-009  0.9118800E+02  0.7818608E-02  0.1130116E+00
         25   -1    0    0    0    0  0.00000000000E+00  0.00000000000E+00  0.99999998245E-14  0.12500000000E+03  0.12500000000E+03 0.  0.
        -11    1    3    3    0    0 -0.45223917569E+02  0.30384458133E+02 -0.15217363512E+02  0.56568420244E+02  0.51100000000E-03 0.  1.
         23    2    1    0    0    0 -0.28909188899E+02  0.10823883417E+01  0.48726744402E+01  0.95663065540E+02  0.91053645643E+02 0.  0.
         11    1    3    3    0    0  0.16314728670E+02 -0.29302069792E+02  0.20090037952E+02  0.39094645296E+02  0.51100000000E-03 0. -1.
         22    1    1    0    0    0  0.28909188899E+02 -0.10823883417E+01 -0.48726744402E+01  0.29336934460E+02  0.00000000000E+00 0.  1.
</event>
<event>
 5    1  0.1096978E-009  0.9118800E+02  0.7818608E-02  0.1130116E+00
         25   -1    0    0    0    0  0.00000000000E+00  0.00000000000E+00  0.99999998245E-14  0.12500000000E+03  0.12500000000E+03 0.  0.
        -11    1    3    3    0    0  0.25316365696E+02  0.15591940299E+02 -0.15267233685E+02  0.33423276306E+02  0.51100000000E-03 0.  1.
         23    2    1    0    0    0 -0.24373869575E+02  0.14296193924E+02  0.16369067572E+02  0.92344019660E+02  0.86377108745E+02 0.  0.
         11    1    3    3    0    0 -0.49690235271E+02 -0.12957463753E+01  0.31636301257E+02  0.58920743355E+02  0.51100000000E-03 0. -1.
         22    1    1    0    0    0  0.24373869575E+02 -0.14296193924E+02 -0.16369067572E+02  0.32655980340E+02  0.00000000000E+00 0. -1.
</event>
<event>
 5    1  0.1096978E-009  0.9118800E+02  0.7818608E-02  0.1130116E+00
         25   -1    0    0    0    0  0.00000000000E+00  0.00000000000E+00  0.99999998245E-14  0.12500000000E+03  0.12500000000E+03 0.  0.
        -11    1    3    3    0    0  0.23790681148E+02  0.12011255758E+02  0.55327468707E+02  0.61411689182E+02  0.51100000000E-03 0. -1.
         23    2    1    0    0    0  0.49962705275E+01  0.11090675723E+02  0.26563489519E+02  0.95783826695E+02  0.91219277971E+02 0.  0.
         11    1    3    3    0    0 -0.18794410621E+02 -0.92058003568E+00 -0.28763979188E+02  0.34372137512E+02  0.51100000000E-03 0.  1.
         22    1    1    0    0    0 -0.49962705275E+01 -0.11090675723E+02 -0.26563489519E+02  0.29216173305E+02  0.00000000000E+00 0. -1.
</event>
<event>
 5    1  0.1096978E-009  0.9118800E+02  0.7818608E-02  0.1130116E+00
         25   -1    0    0    0    0  0.00000000000E+00  0.00000000000E+00  0.99999998245E-14  0.12500000000E+03  0.12500000000E+03 0.  0.
        -11    1    3    3    0    0 -0.12826199276E+02 -0.19010104440E+02 -0.27863598841E+02  0.36087055841E+02  0.51100000000E-03 0.  1.
         23    2    1    0    0    0 -0.14075132042E+02  0.58838881691E+01  0.25670081784E+02  0.95138945417E+02  0.90331259010E+02 0.  0.
         11    1    3    3    0    0 -0.12489327659E+01  0.24893992609E+02  0.53533680625E+02  0.59051889576E+02  0.51100000000E-03 0. -1.
         22    1    1    0    0    0  0.14075132042E+02 -0.58838881691E+01 -0.25670081784E+02  0.29861054583E+02  0.00000000000E+00 0. -1.
</event>
<event>
 5    1  0.1096978E-009  0.9118800E+02  0.7818608E-02  0.1130116E+00
         25   -1    0    0    0    0  0.00000000000E+00  0.00000000000E+00  0.99999998245E-14  0.12500000000E+03  0.12500000000E+03 0.  0.
        -11    1    3    3    0    0  0.52652907331E+02 -0.41772494151E+01 -0.49313881322E+01  0.53048059835E+02  0.51100000000E-03 0. -1.
         23    2    1    0    0    0  0.15325400775E+02 -0.19422805667E+02 -0.16817593688E+02  0.95084372874E+02  0.90255710171E+02 0.  0.
         11    1    3    3    0    0 -0.37327506556E+02 -0.15245556252E+02 -0.11886205556E+02  0.42036313039E+02  0.51100000000E-03 0.  1.
         22    1    1    0    0    0 -0.15325400775E+02  0.19422805667E+02  0.16817593688E+02  0.29915627126E+02  0.00000000000E+00 0. -1.
</event>
<event>
 5    1  0.1096978E-009  0.9118800E+02  0.7818608E-02  0.1130116E+00
         25   -1    0    0    0    0  0.00000000000E+00  0.00000000000E+00  0.99999998245E-14  0.12500000000E+03  0.12500000000E+03 0.  0.
        -11    1    3    3    0    0  0.33599916183E+02  0.35088607847E+02  0.31353091205E+02  0.57820248153E+02  0.51100000000E-03 0. -1.
         23    2    1    0    0    0  0.22039787243E+02  0.13011704763E+01  0.19774850050E+02  0.95360668685E+02  0.90637559384E+02 0.  0.
         11    1    3    3    0    0 -0.11560128940E+02 -0.33787437370E+02 -0.11578241155E+02  0.37540420531E+02  0.51100000000E-03 0.  1.
         22    1    1    0    0    0 -0.22039787243E+02 -0.13011704763E+01 -0.19774850050E+02  0.29639331315E+02  0.00000000000E+00 0. -1.
</event>
<event>
 5    1  0.1096978E-009  0.9118800E+02  0.7818608E-02  0.1130116E+00
         25   -1    0    0    0    0  0.00000000000E+00  0.00000000000E+00  0.99999998245E-14  0.12500000000E+03  0.12500000000E+03 0.  0.
        -11    1    3    3    0    0  0.14923537571E+02 -0.33790353754E+02 -0.99129760750E+01  0.38246138046E+02  0.51100000000E-03 0. -1.
         23    2    1    0    0    0 -0.29346645155E+02 -0.13400253378E+01  0.51721497199E+01  0.95170947342E+02  0.90375532283E+02 0.  0.
         11    1    3    3    0    0 -0.44270182726E+02  0.32450328417E+02  0.15085125795E+02  0.56924809296E+02  0.51100000000E-03 0.  1.
         22    1    1    0    0    0  0.29346645155E+02  0.13400253378E+01 -0.51721497199E+01  0.29829052658E+02  0.00000000000E+00 0.  1.
</event>
<event>
 4    1  0.1096978E-009  0.9118800E+02  0.7818608E-02  0.1130116E+00
         25   -1    0    0    0    0  0.00000000000E+00  0.00000000000E+00  0.99999998245E-14  0.12500000000E+03  0.12500000000E+03 0.  0.
        -11    1    1    0    0    0  0.29330171506E+02  0.21023994785E+02 -0.10928817415E+02  0.37705521713E+02  0.51100000000E-03 0. -1.
         11    1    1    0    0    0  0.23094632381E+02 -0.17392972839E+02 -0.10196383214E+02  0.30656871659E+02  0.51100000000E-03 0.  1.
         22    1    1    0    0    0 -0.52424803887E+02 -0.36310219463E+01  0.21125200628E+02  0.56637606628E+02  0.00000000000E+00 0. -1.
</event>
<event>
 5    1  0.1096978E-009  0.9118800E+02  0.7818608E-02  0.1130116E+00
         25   -1    0    0    0    0  0.00000000000E+00  0.00000000000E+00  0.99999998245E-14  0.12500000000E+03  0.12500000000E+03 0.  0.
        -11    1    3    3    0    0 -0.15877287116E+02  0.32632123556E+02 -0.34311838541E+01  0.36451567276E+02  0.51100000000E-03 0.  1.
         23    2    1    0    0    0  0.26213857358E+02  0.75949019680E+01  0.20409364799E+02  0.90920812436E+02  0.84292366849E+02 0.  0.
         11    1    3    3    0    0  0.42091144474E+02 -0.25037221588E+02  0.23840548653E+02  0.54469245161E+02  0.51100000000E-03 0. -1.
         22    1    1    0    0    0 -0.26213857358E+02 -0.75949019680E+01 -0.20409364799E+02  0.34079187564E+02  0.00000000000E+00 0. -1.
</event>
<event>
 5    1  0.1096978E-009  0.9118800E+02  0.7818608E-02  0.1130116E+00
         25   -1    0    0    0    0  0.00000000000E+00  0.00000000000E+00  0.99999998245E-14  0.12500000000E+03  0.12500000000E+03 0.  0.
        -11    1    3    3    0    0 -0.32555434320E+02  0.14771254887E+02  0.12828518334E+02  0.37981800347E+02  0.51100000000E-03 0.  1.
         23    2    1    0    0    0  0.11239129327E+02 -0.20024932654E+02 -0.11896657414E+02  0.99137934858E+02  0.95705191680E+02 0.  0.
         11    1    3    3    0    0  0.43794563646E+02 -0.34796187540E+02 -0.24725175747E+02  0.61156134511E+02  0.51100000000E-03 0. -1.
         22    1    1    0    0    0 -0.11239129327E+02  0.20024932654E+02  0.11896657414E+02  0.25862065142E+02  0.00000000000E+00 0. -1.
</event>
<event>
 5    1  0.1096978E-009  0.9118800E+02  0.7818608E-02  0.1130116E+00
         25   -1    0    0    0    0  0.00000000000E+00  0.00000000000E+00  0.99999998245E-14  0.12500000000E+03  0.12500000000E+03 0.  0.
        -11    1    3    3    0    0  0.60500818819E+02  0.37828262981E+01 -0.17490028966E+01  0.60644190686E+02  0.51100000000E-03 0.  1.
         23    2    1    0    0    0  0.27486207505E+02 -0.58399687684E+01 -0.84035583631E+01  0.95670550100E+02  0.91063919996E+02 0.  0.
         11    1    3    3    0    0 -0.33014611314E+02 -0.96227950665E+01 -0.66545554665E+01  0.35026359414E+02  0.51100000000E-03 0. -1.
         22    1    1    0    0    0 -0.27486207505E+02  0.58399687684E+01  0.84035583631E+01  0.29329449900E+02  0.00000000000E+00 0.  1.
</event>
<event>
 5    1  0.1096978E-009  0.9118800E+02  0.7818608E-02  0.1130116E+00
         25   -1    0    0    0    0  0.00000000000E+00  0.00000000000E+00  0.99999998245E-14  0.12500000000E+03  0.12500000000E+03 0.  0.
        -11    1    3    3    0    0 -0.38006316072E+01 -0.30269406464E+02 -0.43662518782E+02  0.53264409459E+02  0.51100000000E-03 0. -1.
         23    2    1    0    0    0 -0.22228001636E+02 -0.95211215063E+00 -0.18420022231E+02  0.96115959541E+02  0.91673277923E+02 0.  0.
         11    1    3    3    0    0 -0.18427370029E+02  0.29317294314E+02  0.25242496551E+02  0.42851550082E+02  0.51100000000E-03 0.  1.
         22    1    1    0    0    0  0.22228001636E+02  0.95211215063E+00  0.18420022231E+02  0.28884040459E+02  0.00000000000E+00 0. -1.
</event>
<event>
 5    1  0.1096978E-009  0.9118800E+02  0.7818608E-02  0.1130116E+00
         25   -1    0    0    0    0  0.00000000000E+00  0.00000000000E+00  0.99999998245E-14  0.12500000000E+03  0.12500000000E+03 0.  0.
        -11    1    3    3    0    0 -0.31547161605E+02 -0.13706580163E+02  0.61214440919E+01  0.34936597189E+02  0.51100000000E-03 0.  1.
         23    2    1    0    0    0  0.17143323597E+02  0.15163057205E+02 -0.17415135734E+02  0.96240674549E+02  0.91843174147E+02 0.  0.
         11    1    3    3    0    0  0.48690485202E+02  0.28869637367E+02 -0.23536579826E+02  0.61304077361E+02  0.51100000000E-03 0. -1.
         22    1    1    0    0    0 -0.17143323597E+02 -0.15163057205E+02  0.17415135734E+02  0.28759325451E+02  0.00000000000E+00 0. -1.
</event>
<event>
 5    1  0.1096978E-009  0.9118800E+02  0.7818608E-02  0.1130116E+00
         25   -1    0    0    0    0  0.00000000000E+00  0.00000000000E+00  0.99999998245E-14  0.12500000000E+03  0.12500000000E+03 0.  0.
        -11    1    3    3    0    0 -0.17540271742E+02  0.33414607125E+02  0.32112073791E+01  0.37874911949E+02  0.51100000000E-03 0.  1.
         23    2    1    0    0    0  0.15730071212E+02 -0.52851051389E+01 -0.24085485172E+02  0.95751443238E+02  0.91174891333E+02 0.  0.
         11    1    3    3    0    0  0.33270342954E+02 -0.38699712264E+02 -0.27296692551E+02  0.57876531289E+02  0.51100000000E-03 0. -1.
         22    1    1    0    0    0 -0.15730071212E+02  0.52851051389E+01  0.24085485172E+02  0.29248556762E+02  0.00000000000E+00 0. -1.
</event>
<event>
 5    1  0.1096978E-009  0.9118800E+02  0.7818608E-02  0.1130116E+00
         25   -1    0    0    0    0  0.00000000000E+00  0.00000000000E+00  0.99999998245E-14  0.12500000000E+03  0.12500000000E+03 0.  0.
        -11    1    3    3    0    0 -0.15115044570E+02  0.28044615962E+02 -0.44588146950E+01  0.32169023696E+02  0.51100000000E-03 0.  1.
         23    2    1    0    0    0  0.96432807260E+01 -0.28019125508E+02 -0.10048174036E+02  0.93710543966E+02  0.88332530766E+02 0.  0.
         11    1    3    3    0    0  0.24758325296E+02 -0.56063741470E+02 -0.55893593414E+01  0.61541520271E+02  0.51100000000E-03 0. -1.
         22    1    1    0    0    0 -0.96432807260E+01  0.28019125508E+02  0.10048174036E+02  0.31289456034E+02  0.00000000000E+00 0. -1.
</event>
<event>
 5    1  0.1096978E-009  0.9118800E+02  0.7818608E-02  0.1130116E+00
         25   -1    0    0    0    0  0.00000000000E+00  0.00000000000E+00  0.99999998245E-14  0.12500000000E+03  0.12500000000E+03 0.  0.
        -11    1    3    3    0    0  0.25777070121E+01  0.28146168638E+02 -0.43393398939E+02  0.51786469798E+02  0.51100000000E-03 0.  1.
         23    2    1    0    0    0  0.25735537262E+01  0.26506203605E+02  0.29926774376E+01  0.98201527532E+02  0.94474239256E+02 0.  0.
         11    1    3    3    0    0 -0.41532859328E-02 -0.16399650323E+01  0.46386076377E+02  0.46415057734E+02  0.51100000000E-03 0. -1.
         22    1    1    0    0    0 -0.25735537262E+01 -0.26506203605E+02 -0.29926774376E+01  0.26798472468E+02  0.00000000000E+00 0. -1.
</event>
<event>
 5    1  0.1096978E-009  0.9118800E+02  0.7818608E-02  0.1130116E+00
         25   -1    0    0    0    0  0.00000000000E+00  0.00000000000E+00  0.99999998245E-14  0.12500000000E+03  0.12500000000E+03 0.  0.
        -11    1    3    3    0    0  0.11967962166E+02 -0.16369890754E+02  0.28049315992E+02  0.34611697005E+02  0.51100000000E-03 0. -1.
         23    2    1    0    0    0 -0.14239467113E+02  0.18831734701E+02 -0.15753770614E+02  0.96617294983E+02  0.92354337991E+02 0.  0.
         11    1    3    3    0    0 -0.26207429279E+02  0.35201625455E+02 -0.43803086606E+02  0.62005597978E+02  0.51100000000E-03 0.  1.
         22    1    1    0    0    0  0.14239467113E+02 -0.18831734701E+02  0.15753770614E+02  0.28382705017E+02  0.00000000000E+00 0.  1.
</event>
<event>
 5    1  0.1096978E-009  0.9118800E+02  0.7818608E-02  0.1130116E+00
         25   -1    0    0    0    0  0.00000000000E+00  0.00000000000E+00  0.99999998245E-14  0.12500000000E+03  0.12500000000E+03 0.  0.
        -11    1    3    3    0    0 -0.41219765365E+02 -0.41026899426E+02 -0.60834094817E+01  0.58474638985E+02  0.51100000000E-03 0.  1.
         23    2    1    0    0    0 -0.26292547344E+02 -0.97978429645E+01  0.79687916316E+01  0.95831568217E+02  0.91284675901E+02 0.  0.
         11    1    3    3    0    0  0.14927218021E+02  0.31229056461E+02  0.14052201113E+02  0.37356929232E+02  0.51100000000E-03 0. -1.
         22    1    1    0    0    0  0.26292547344E+02  0.97978429645E+01 -0.79687916316E+01  0.29168431783E+02  0.00000000000E+00 0.  1.
</event>
<event>
 5    1  0.1096978E-009  0.9118800E+02  0.7818608E-02  0.1130116E+00
         25   -1    0    0    0    0  0.00000000000E+00  0.00000000000E+00  0.99999998245E-14  0.12500000000E+03  0.12500000000E+03 0.  0.
        -11    1    3    3    0    0  0.41804346995E+02  0.16173811803E+02  0.17414582981E+02  0.48088078737E+02  0.51100000000E-03 0.  1.
         23    2    1    0    0    0  0.25162596467E+01 -0.92834166845E+01  0.27404237767E+02  0.95956831517E+02  0.91456043427E+02 0.  0.
         11    1    3    3    0    0 -0.39288087348E+02 -0.25457228488E+02  0.99896547853E+01  0.47868752780E+02  0.51100000000E-03 0. -1.
         22    1    1    0    0    0 -0.25162596467E+01  0.92834166845E+01 -0.27404237767E+02  0.29043168483E+02  0.00000000000E+00 0. -1.
</event>
<event>
 5    1  0.1096978E-009  0.9118800E+02  0.7818608E-02  0.1130116E+00
         25   -1    0    0    0    0  0.00000000000E+00  0.00000000000E+00  0.99999998245E-14  0.12500000000E+03  0.12500000000E+03 0.  0.
        -11    1    3    3    0    0 -0.44845979758E+02  0.23052537624E+02  0.20069101044E+02  0.54271080774E+02  0.51100000000E-03 0.  1.
         23    2    1    0    0    0 -0.28321925134E+02  0.55038336671E+00 -0.96764966996E+01  0.95065589140E+02  0.90229691815E+02 0.  0.
         11    1    3    3    0    0  0.16524054624E+02 -0.22502154258E+02 -0.29745597743E+02  0.40794508366E+02  0.51100000000E-03 0. -1.
         22    1    1    0    0    0  0.28321925134E+02 -0.55038336671E+00  0.96764966996E+01  0.29934410860E+02  0.00000000000E+00 0. -1.
</event>
<event>
 5    1  0.1096978E-009  0.9118800E+02  0.7818608E-02  0.1130116E+00
         25   -1    0    0    0    0  0.00000000000E+00  0.00000000000E+00  0.99999998245E-14  0.12500000000E+03  0.12500000000E+03 0.  0.
        -11    1    3    3    0    0  0.27473714200E+02  0.15867019746E+02 -0.15558075245E+02  0.35335831576E+02  0.51100000000E-03 0. -1.
         23    2    1    0    0    0 -0.29438681920E+02  0.89038880215E+01 -0.24853768357E+01  0.94144006853E+02  0.88943812113E+02 0.  0.
         11    1    3    3    0    0 -0.56912396120E+02 -0.69631317250E+01  0.13072698409E+02  0.58808175277E+02  0.51100000000E-03 0.  1.
         22    1    1    0    0    0  0.29438681920E+02 -0.89038880215E+01  0.24853768357E+01  0.30855993147E+02  0.00000000000E+00 0.  1.
</event>
<event>
 5    1  0.1096978E-009  0.9118800E+02  0.7818608E-02  0.1130116E+00
         25   -1    0    0    0    0  0.00000000000E+00  0.00000000000E+00  0.99999998245E-14  0.12500000000E+03  0.12500000000E+03 0.  0.
        -11    1    3    3    0    0 -0.13768934413E+02  0.22538939444E+02  0.35282029568E+02  0.44072768881E+02  0.51100000000E-03 0.  1.
         23    2    1    0    0    0  0.12391649678E+02  0.25645555232E+02 -0.85931804365E+01  0.95249533871E+02  0.90484161419E+02 0.  0.
         11    1    3    3    0    0  0.26160584091E+02  0.31066157878E+01 -0.43875210005E+02  0.51176764990E+02  0.51100000000E-03 0. -1.
         22    1    1    0    0    0 -0.12391649678E+02 -0.25645555232E+02  0.85931804365E+01  0.29750466129E+02  0.00000000000E+00 0. -1.
</event>
<event>
 5    1  0.1096978E-009  0.9118800E+02  0.7818608E-02  0.1130116E+00
         25   -1    0    0    0    0  0.00000000000E+00  0.00000000000E+00  0.99999998245E-14  0.12500000000E+03  0.12500000000E+03 0.  0.
        -11    1    3    3    0    0  0.18877242395E+02  0.11085851697E+02 -0.28950631715E+02  0.36295805064E+02  0.51100000000E-03 0. -1.
         23    2    1    0    0    0  0.23357428518E+01 -0.25381259454E+02  0.14736341285E+02  0.95558128786E+02  0.90909472534E+02 0.  0.
         11    1    3    3    0    0 -0.16541499543E+02 -0.36467111150E+02  0.43686973000E+02  0.59262323722E+02  0.51100000000E-03 0.  1.
         22    1    1    0    0    0 -0.23357428518E+01  0.25381259454E+02 -0.14736341285E+02  0.29441871214E+02  0.00000000000E+00 0.  1.
</event>
<event>
 5    1  0.1096978E-009  0.9118800E+02  0.7818608E-02  0.1130116E+00
         25   -1    0    0    0    0  0.00000000000E+00  0.00000000000E+00  0.99999998245E-14  0.12500000000E+03  0.12500000000E+03 0.  0.
        -11    1    3    3    0    0  0.29952777808E+02  0.12009473885E+02 -0.18976088575E+02  0.37436456821E+02  0.51100000000E-03 0.  1.
         23    2    1    0    0    0 -0.25667922359E+02  0.81772629445E+01 -0.16841351981E+02  0.93229872458E+02  0.87649689757E+02 0.  0.
         11    1    3    3    0    0 -0.55620700168E+02 -0.38322109402E+01  0.21347365942E+01  0.55793415637E+02  0.51100000000E-03 0. -1.
         22    1    1    0    0    0  0.25667922359E+02 -0.81772629445E+01  0.16841351981E+02  0.31770127542E+02  0.00000000000E+00 0. -1.
</event>
<event>
 5    1  0.1096978E-009  0.9118800E+02  0.7818608E-02  0.1130116E+00
         25   -1    0    0    0    0  0.00000000000E+00  0.00000000000E+00  0.99999998245E-14  0.12500000000E+03  0.12500000000E+03 0.  0.
        -11    1    3    3    0    0 -0.11994780231E+02  0.36154567954E+02 -0.41567908780E+02  0.56381899377E+02  0.51100000000E-03 0.  1.
         23    2    1    0    0    0 -0.23309805413E+02  0.10701406867E+02 -0.13142904607E+02  0.96179814733E+02  0.91760305597E+02 0.  0.
         11    1    3    3    0    0 -0.11315025181E+02 -0.25453161087E+02  0.28425004174E+02  0.39797915356E+02  0.51100000000E-03 0. -1.
         22    1    1    0    0    0  0.23309805413E+02 -0.10701406867E+02  0.13142904607E+02  0.28820185267E+02  0.00000000000E+00 0.  1.
</event>
<event>
 5    1  0.1096978E-009  0.9118800E+02  0.7818608E-02  0.1130116E+00
         25   -1    0    0    0    0  0.00000000000E+00  0.00000000000E+00  0.99999998245E-14  0.12500000000E+03  0.12500000000E+03 0.  0.
        -11    1    3    3    0    0 -0.15070060075E+02 -0.27148688986E+02  0.43314648456E+02  0.53294622576E+02  0.51100000000E-03 0. -1.
         23    2    1    0    0    0 -0.11552802952E+02  0.10957909138E+02  0.24096473637E+02  0.96117772412E+02  0.91675749809E+02 0.  0.
         11    1    3    3    0    0  0.35172571228E+01  0.38106598124E+02 -0.19218174819E+02  0.42823149836E+02  0.51100000000E-03 0.  1.
         22    1    1    0    0    0  0.11552802952E+02 -0.10957909138E+02 -0.24096473637E+02  0.28882227588E+02  0.00000000000E+00 0. -1.
</event>
<event>
 5    1  0.1096978E-009  0.9118800E+02  0.7818608E-02  0.1130116E+00
         25   -1    0    0    0    0  0.00000000000E+00  0.00000000000E+00  0.99999998245E-14  0.12500000000E+03  0.12500000000E+03 0.  0.
        -11    1    3    3    0    0  0.47434036580E+02 -0.44831796275E+00 -0.39818542823E+02  0.61933070068E+02  0.51100000000E-03 0. -1.
         23    2    1    0    0    0  0.26466255099E+02 -0.29287368341E+01 -0.15300942000E+02  0.94289106420E+02  0.89147499151E+02 0.  0.
         11    1    3    3    0    0 -0.20967781481E+02 -0.24804188714E+01  0.24517600823E+02  0.32356036352E+02  0.51100000000E-03 0.  1.
         22    1    1    0    0    0 -0.26466255099E+02  0.29287368341E+01  0.15300942000E+02  0.30710893580E+02  0.00000000000E+00 0. -1.
</event>
<event>
 5    1  0.1096978E-009  0.9118800E+02  0.7818608E-02  0.1130116E+00
         25   -1    0    0    0    0  0.00000000000E+00  0.00000000000E+00  0.99999998245E-14  0.12500000000E+03  0.12500000000E+03 0.  0.
        -11    1    3    3    0    0 -0.10229712929E+02 -0.30342633450E+02  0.45201063854E+02  0.55393669359E+02  0.51100000000E-03 0.  1.
         23    2    1    0    0    0 -0.16187076590E+02 -0.23752668530E+02  0.59379960870E+01  0.95649182152E+02  0.91034584296E+02 0.  0.
         11    1    3    3    0    0 -0.59573636608E+01  0.65899649203E+01 -0.39263067767E+02  0.40255512792E+02  0.51100000000E-03 0. -1.
         22    1    1    0    0    0  0.16187076590E+02  0.23752668530E+02 -0.59379960870E+01  0.29350817848E+02  0.00000000000E+00 0.  1.
</event>
<event>
 5    1  0.1096978E-009  0.9118800E+02  0.7818608E-02  0.1130116E+00
         25   -1    0    0    0    0  0.00000000000E+00  0.00000000000E+00  0.99999998245E-14  0.12500000000E+03  0.12500000000E+03 0.  0.
        -11    1    3    3    0    0 -0.14164862069E+02 -0.27838031195E+02  0.27486269864E+02  0.41606421735E+02  0.51100000000E-03 0.  1.
         23    2    1    0    0    0 -0.48553422191E+01  0.21649281834E+02  0.24347723766E+02  0.92059486880E+02  0.85964363082E+02 0.  0.
         11    1    3    3    0    0  0.93095198496E+01  0.49487313030E+02 -0.31385460974E+01  0.50453065146E+02  0.51100000000E-03 0. -1.
         22    1    1    0    0    0  0.48553422191E+01 -0.21649281834E+02 -0.24347723766E+02  0.32940513120E+02  0.00000000000E+00 0.  1.
</event>
<event>
 5    1  0.1096978E-009  0.9118800E+02  0.7818608E-02  0.1130116E+00
         25   -1    0    0    0    0  0.00000000000E+00  0.00000000000E+00  0.99999998245E-14  0.12500000000E+03  0.12500000000E+03 0.  0.
        -11    1    3    3    0    0  0.44472508204E+02 -0.21665249596E+02 -0.32806876362E+02  0.59358892871E+02  0.51100000000E-03 0. -1.
         23    2    1    0    0    0  0.25469709563E+02 -0.16599410224E+02 -0.38599509986E+01  0.94354515068E+02  0.89239166104E+02 0.  0.
         11    1    3    3    0    0 -0.19002798640E+02  0.50658393727E+01  0.28946925363E+02  0.34995622197E+02  0.51100000000E-03 0.  1.
         22    1    1    0    0    0 -0.25469709563E+02  0.16599410224E+02  0.38599509986E+01  0.30645484932E+02  0.00000000000E+00 0. -1.
</event>
<event>
 5    1  0.1096978E-009  0.9118800E+02  0.7818608E-02  0.1130116E+00
         25   -1    0    0    0    0  0.00000000000E+00  0.00000000000E+00  0.99999998245E-14  0.12500000000E+03  0.12500000000E+03 0.  0.
        -11    1    3    3    0    0 -0.42304694667E+02 -0.87257838056E+01 -0.18256444280E+02  0.46894821163E+02  0.51100000000E-03 0.  1.
         23    2    1    0    0    0  0.30184447962E+01 -0.22283314172E+02 -0.20932976576E+02  0.94277913356E+02  0.89131803185E+02 0.  0.
         11    1    3    3    0    0  0.45323139463E+02 -0.13557530366E+02 -0.26765322953E+01  0.47383092193E+02  0.51100000000E-03 0. -1.
         22    1    1    0    0    0 -0.30184447962E+01  0.22283314172E+02  0.20932976576E+02  0.30722086644E+02  0.00000000000E+00 0.  1.
</event>
<event>
 5    1  0.1096978E-009  0.9118800E+02  0.7818608E-02  0.1130116E+00
         25   -1    0    0    0    0  0.00000000000E+00  0.00000000000E+00  0.99999998245E-14  0.12500000000E+03  0.12500000000E+03 0.  0.
        -11    1    3    3    0    0 -0.38455052336E+02 -0.13519705226E+02  0.13304889962E+02  0.42878824339E+02  0.51100000000E-03 0.  1.
         23    2    1    0    0    0 -0.40284238821E+01  0.21032616315E+02  0.24022507403E+02  0.92818017308E+02  0.87060348765E+02 0.  0.
         11    1    3    3    0    0  0.34426628453E+02  0.34552321541E+02  0.10717617441E+02  0.49939192969E+02  0.51100000000E-03 0. -1.
         22    1    1    0    0    0  0.40284238821E+01 -0.21032616315E+02 -0.24022507403E+02  0.32181982692E+02  0.00000000000E+00 0. -1.
</event>
<event>
 5    1  0.1096978E-009  0.9118800E+02  0.7818608E-02  0.1130116E+00
         25   -1    0    0    0    0  0.00000000000E+00  0.00000000000E+00  0.99999998245E-14  0.12500000000E+03  0.12500000000E+03 0.  0.
        -11    1    3    3    0    0  0.46891289339E+01 -0.34135001507E+02  0.50309420649E+01  0.34820922394E+02  0.51100000000E-03 0.  1.
         23    2    1    0    0    0 -0.98272524370E+01  0.23343310774E+02  0.15904362331E+02  0.95092914059E+02  0.90267538544E+02 0.  0.
         11    1    3    3    0    0 -0.14516381371E+02  0.57478312280E+02  0.10873420266E+02  0.60271991665E+02  0.51100000000E-03 0. -1.
         22    1    1    0    0    0  0.98272524370E+01 -0.23343310774E+02 -0.15904362331E+02  0.29907085941E+02  0.00000000000E+00 0. -1.
</event>
<event>
 5    1  0.1096978E-009  0.9118800E+02  0.7818608E-02  0.1130116E+00
         25   -1    0    0    0    0  0.00000000000E+00  0.00000000000E+00  0.99999998245E-14  0.12500000000E+03  0.12500000000E+03 0.  0.
        -11    1    3    3    0    0 -0.10552987149E+02 -0.23898743851E+02 -0.25785844472E+02  0.36707291794E+02  0.51100000000E-03 0. -1.
         23    2    1    0    0    0  0.61896099748E+01 -0.17415607979E+00  0.27187053906E+02  0.97116716441E+02  0.93027840511E+02 0.  0.
         11    1    3    3    0    0  0.16742597124E+02  0.23724587771E+02  0.52972898378E+02  0.60409424647E+02  0.51100000000E-03 0.  1.
         22    1    1    0    0    0 -0.61896099748E+01  0.17415607979E+00 -0.27187053906E+02  0.27883283559E+02  0.00000000000E+00 0.  1.
</event>
<event>
 5    1  0.1096978E-009  0.9118800E+02  0.7818608E-02  0.1130116E+00
         25   -1    0    0    0    0  0.00000000000E+00  0.00000000000E+00  0.99999998245E-14  0.12500000000E+03  0.12500000000E+03 0.  0.
        -11    1    3    3    0    0 -0.66221048034E+01  0.88337398419E+01 -0.33074406056E+02  0.34868374896E+02  0.51100000000E-03 0.  1.
         23    2    1    0    0    0  0.18395941871E+02  0.56596064513E+01  0.22196643208E+02  0.95620878294E+02  0.90995711842E+02 0.  0.
         11    1    3    3    0    0  0.25018046675E+02 -0.31741333906E+01  0.55271049264E+02  0.60752503399E+02  0.51100000000E-03 0. -1.
         22    1    1    0    0    0 -0.18395941871E+02 -0.56596064513E+01 -0.22196643208E+02  0.29379121706E+02  0.00000000000E+00 0. -1.
</event>
<event>
 5    1  0.1096978E-009  0.9118800E+02  0.7818608E-02  0.1130116E+00
         25   -1    0    0    0    0  0.00000000000E+00  0.00000000000E+00  0.99999998245E-14  0.12500000000E+03  0.12500000000E+03 0.  0.
        -11    1    3    3    0    0  0.17113695186E+02  0.42993948473E+02 -0.24079840180E+02  0.52165092462E+02  0.51100000000E-03 0.  1.
         23    2    1    0    0    0 -0.45426653264E+01  0.61048120307E+01 -0.28809944969E+02  0.95202055989E+02  0.90418548967E+02 0.  0.
         11    1    3    3    0    0 -0.21656360512E+02 -0.36889136442E+02 -0.47301047886E+01  0.43036963527E+02  0.51100000000E-03 0. -1.
         22    1    1    0    0    0  0.45426653264E+01 -0.61048120307E+01  0.28809944969E+02  0.29797944011E+02  0.00000000000E+00 0.  1.
</event>
<event>
 5    1  0.1096978E-009  0.9118800E+02  0.7818608E-02  0.1130116E+00
         25   -1    0    0    0    0  0.00000000000E+00  0.00000000000E+00  0.99999998245E-14  0.12500000000E+03  0.12500000000E+03 0.  0.
        -11    1    3    3    0    0 -0.13218047188E+02  0.35570669479E+02 -0.40516610229E+02  0.55512025755E+02  0.51100000000E-03 0. -1.
         23    2    1    0    0    0 -0.24267835570E+02  0.15062460453E+02 -0.83236395097E+01  0.95249562477E+02  0.90484200937E+02 0.  0.
         11    1    3    3    0    0 -0.11049788382E+02 -0.20508209027E+02  0.32192970719E+02  0.39737536722E+02  0.51100000000E-03 0.  1.
         22    1    1    0    0    0  0.24267835570E+02 -0.15062460453E+02  0.83236395097E+01  0.29750437523E+02  0.00000000000E+00 0. -1.
</event>
<event>
 5    1  0.1096978E-009  0.9118800E+02  0.7818608E-02  0.1130116E+00
         25   -1    0    0    0    0  0.00000000000E+00  0.00000000000E+00  0.99999998245E-14  0.12500000000E+03  0.12500000000E+03 0.  0.
        -11    1    3    3    0    0 -0.92680552023E+01 -0.26896611198E+02 -0.22492426294E+02  0.36266152015E+02  0.51100000000E-03 0.  1.
         23    2    1    0    0    0 -0.88631455895E+01  0.28721247766E+02 -0.53283776877E+01  0.94473666585E+02  0.89405909459E+02 0.  0.
         11    1    3    3    0    0  0.40490961282E+00  0.55617858964E+02  0.17164048606E+02  0.58207514569E+02  0.51100000000E-03 0. -1.
         22    1    1    0    0    0  0.88631455895E+01 -0.28721247766E+02  0.53283776877E+01  0.30526333415E+02  0.00000000000E+00 0. -1.
</event>
<event>
 5    1  0.1096978E-009  0.9118800E+02  0.7818608E-02  0.1130116E+00
         25   -1    0    0    0    0  0.00000000000E+00  0.00000000000E+00  0.99999998245E-14  0.12500000000E+03  0.12500000000E+03 0.  0.
        -11    1    3    3    0    0 -0.11281494056E+02  0.22849568513E+02  0.26134815763E+02  0.36502102468E+02  0.51100000000E-03 0.  1.
         23    2    1    0    0    0  0.21625837451E+02  0.45325346346E+01 -0.19401728613E+02  0.95595106039E+02  0.90960301834E+02 0.  0.
         11    1    3    3    0    0  0.32907331508E+02 -0.18317033878E+02 -0.45536544376E+02  0.59093003571E+02  0.51100000000E-03 0. -1.
         22    1    1    0    0    0 -0.21625837451E+02 -0.45325346346E+01  0.19401728613E+02  0.29404893961E+02  0.00000000000E+00 0. -1.
</event>
<event>
 5    1  0.1096978E-009  0.9118800E+02  0.7818608E-02  0.1130116E+00
         25   -1    0    0    0    0  0.00000000000E+00  0.00000000000E+00  0.99999998245E-14  0.12500000000E+03  0.12500000000E+03 0.  0.
        -11    1    3    3    0    0 -0.31479252444E+02  0.18359338656E+02 -0.33883803278E+02  0.49760634795E+02  0.51100000000E-03 0. -1.
         23    2    1    0    0    0 -0.26368756533E+01  0.30004007561E+02 -0.12337059489E+01  0.94855089761E+02  0.89937603039E+02 0.  0.
         11    1    3    3    0    0  0.28842376791E+02  0.11644668905E+02  0.32650097329E+02  0.45094454967E+02  0.51100000000E-03 0.  1.
         22    1    1    0    0    0  0.26368756533E+01 -0.30004007561E+02  0.12337059489E+01  0.30144910239E+02  0.00000000000E+00 0.  1.
</event>
<event>
 5    1  0.1096978E-009  0.9118800E+02  0.7818608E-02  0.1130116E+00
         25   -1    0    0    0    0  0.00000000000E+00  0.00000000000E+00  0.99999998245E-14  0.12500000000E+03  0.12500000000E+03 0.  0.
        -11    1    3    3    0    0 -0.29235926327E+02 -0.51715177136E+02  0.29044369729E+01  0.59478018535E+02  0.51100000000E-03 0.  1.
         23    2    1    0    0    0 -0.24955141040E+02 -0.16520300415E+02  0.28962902218E+01  0.94932278318E+02  0.90044819837E+02 0.  0.
         11    1    3    3    0    0  0.42807852871E+01  0.35194876722E+02 -0.81467511158E-02  0.35454259783E+02  0.51100000000E-03 0. -1.
         22    1    1    0    0    0  0.24955141040E+02  0.16520300415E+02 -0.28962902218E+01  0.30067721682E+02  0.00000000000E+00 0.  1.
</event>
<event>
 5    1  0.1096978E-009  0.9118800E+02  0.7818608E-02  0.1130116E+00
         25   -1    0    0    0    0  0.00000000000E+00  0.00000000000E+00  0.99999998245E-14  0.12500000000E+03  0.12500000000E+03 0.  0.
        -11    1    3    3    0    0  0.49369646710E+01 -0.30118194848E+02 -0.24023029969E+02  0.38840510427E+02  0.51100000000E-03 0.  1.
         23    2    1    0    0    0 -0.27711883364E+02  0.11349135629E+02 -0.95890122217E+01  0.93556391516E+02  0.88114118500E+02 0.  0.
         11    1    3    3    0    0 -0.32648848035E+02  0.41467330476E+02  0.14434017748E+02  0.54715881090E+02  0.51100000000E-03 0. -1.
         22    1    1    0    0    0  0.27711883364E+02 -0.11349135629E+02  0.95890122217E+01  0.31443608484E+02  0.00000000000E+00 0. -1.
</event>
<event>
 5    1  0.1096978E-009  0.9118800E+02  0.7818608E-02  0.1130116E+00
         25   -1    0    0    0    0  0.00000000000E+00  0.00000000000E+00  0.99999998245E-14  0.12500000000E+03  0.12500000000E+03 0.  0.
        -11    1    3    3    0    0  0.18694410995E+02  0.47078602547E+02  0.27910228763E+02  0.57834736017E+02  0.51100000000E-03 0.  1.
         23    2    1    0    0    0 -0.50550846279E+01  0.28499433500E+02  0.51795514314E+01  0.95595929815E+02  0.90961433881E+02 0.  0.
         11    1    3    3    0    0 -0.23749495623E+02 -0.18579169047E+02 -0.22730677332E+02  0.37761193798E+02  0.51100000000E-03 0. -1.
         22    1    1    0    0    0  0.50550846279E+01 -0.28499433500E+02 -0.51795514314E+01  0.29404070185E+02  0.00000000000E+00 0.  1.
</event>
<event>
 5    1  0.1096978E-009  0.9118800E+02  0.7818608E-02  0.1130116E+00
         25   -1    0    0    0    0  0.00000000000E+00  0.00000000000E+00  0.99999998245E-14  0.12500000000E+03  0.12500000000E+03 0.  0.
        -11    1    3    3    0    0  0.14904010113E+02  0.31716350311E+02 -0.50380059374E+02  0.61369428686E+02  0.51100000000E-03 0.  1.
         23    2    1    0    0    0  0.12831988920E+02  0.12224186313E+02 -0.32885701957E+02  0.87642804390E+02  0.79282413544E+02 0.  0.
         11    1    3    3    0    0 -0.20720211922E+01 -0.19492163998E+02  0.17494357417E+02  0.26273375703E+02  0.51100000000E-03 0. -1.
         22    1    1    0    0    0 -0.12831988920E+02 -0.12224186313E+02  0.32885701957E+02  0.37357195610E+02  0.00000000000E+00 0.  1.
</event>
<event>
 5    1  0.1096978E-009  0.9118800E+02  0.7818608E-02  0.1130116E+00
         25   -1    0    0    0    0  0.00000000000E+00  0.00000000000E+00  0.99999998245E-14  0.12500000000E+03  0.12500000000E+03 0.  0.
        -11    1    3    3    0    0 -0.49435632157E+01  0.27185772901E+02 -0.19979879168E+02  0.34098396404E+02  0.51100000000E-03 0. -1.
         23    2    1    0    0    0 -0.31216549185E+02 -0.12022490185E+02  0.10089106489E+02  0.90060004536E+02  0.83006030708E+02 0.  0.
         11    1    3    3    0    0 -0.26272985970E+02 -0.39208263085E+02  0.30068985658E+02  0.55961608132E+02  0.51100000000E-03 0.  1.
         22    1    1    0    0    0  0.31216549185E+02  0.12022490185E+02 -0.10089106489E+02  0.34939995464E+02  0.00000000000E+00 0.  1.
</event>
<event>
 5    1  0.1096978E-009  0.9118800E+02  0.7818608E-02  0.1130116E+00
         25   -1    0    0    0    0  0.00000000000E+00  0.00000000000E+00  0.99999998245E-14  0.12500000000E+03  0.12500000000E+03 0.  0.
        -11    1    3    3    0    0  0.24515460533E+02 -0.27161263465E+02 -0.97481842984E+01  0.37865144071E+02  0.51100000000E-03 0.  1.
         23    2    1    0    0    0 -0.10529711783E+02  0.17837023192E+02 -0.20446647105E+02  0.95895024404E+02  0.91371527846E+02 0.  0.
         11    1    3    3    0    0 -0.35045172317E+02  0.44998286657E+02 -0.10698462807E+02  0.58029880333E+02  0.51100000000E-03 0. -1.
         22    1    1    0    0    0  0.10529711783E+02 -0.17837023192E+02  0.20446647105E+02  0.29104975596E+02  0.00000000000E+00 0. -1.
</event>
<event>
 5    1  0.1096978E-009  0.9118800E+02  0.7818608E-02  0.1130116E+00
         25   -1    0    0    0    0  0.00000000000E+00  0.00000000000E+00  0.99999998245E-14  0.12500000000E+03  0.12500000000E+03 0.  0.
        -11    1    3    3    0    0  0.28854514661E+02  0.11982399646E+02 -0.42538723415E+02  0.52779767976E+02  0.51100000000E-03 0. -1.
         23    2    1    0    0    0 -0.38354364910E+01 -0.72664913990E+01 -0.31726695138E+02  0.92226601417E+02  0.86207020330E+02 0.  0.
         11    1    3    3    0    0 -0.32689951152E+02 -0.19248891045E+02  0.10812028277E+02  0.39446833441E+02  0.51100000000E-03 0.  1.
         22    1    1    0    0    0  0.38354364910E+01  0.72664913990E+01  0.31726695138E+02  0.32773398583E+02  0.00000000000E+00 0. -1.
</event>
<event>
 5    1  0.1096978E-009  0.9118800E+02  0.7818608E-02  0.1130116E+00
         25   -1    0    0    0    0  0.00000000000E+00  0.00000000000E+00  0.99999998245E-14  0.12500000000E+03  0.12500000000E+03 0.  0.
        -11    1    3    3    0    0  0.43695279243E+01  0.17050292774E+02  0.38285557276E+02  0.42137740260E+02  0.51100000000E-03 0. -1.
         23    2    1    0    0    0  0.18937236846E+02  0.17768221384E+02 -0.13355494437E+02  0.95799009226E+02  0.91240080592E+02 0.  0.
         11    1    3    3    0    0  0.14567708922E+02  0.71792860979E+00 -0.51641051714E+02  0.53661268966E+02  0.51100000000E-03 0.  1.
         22    1    1    0    0    0 -0.18937236846E+02 -0.17768221384E+02  0.13355494437E+02  0.29200990774E+02  0.00000000000E+00 0.  1.
</event>
<event>
 5    1  0.1096978E-009  0.9118800E+02  0.7818608E-02  0.1130116E+00
         25   -1    0    0    0    0  0.00000000000E+00  0.00000000000E+00  0.99999998245E-14  0.12500000000E+03  0.12500000000E+03 0.  0.
        -11    1    3    3    0    0 -0.31477137930E+02 -0.38581264952E+02  0.20844051156E+02  0.53979613619E+02  0.51100000000E-03 0. -1.
         23    2    1    0    0    0  0.25470801909E+01 -0.20955514323E+02  0.24719244723E+02  0.92493658192E+02  0.86593386283E+02 0.  0.
         11    1    3    3    0    0  0.34024218121E+02  0.17625750629E+02  0.38751935669E+01  0.38514044573E+02  0.51100000000E-03 0.  1.
         22    1    1    0    0    0 -0.25470801909E+01  0.20955514323E+02 -0.24719244723E+02  0.32506341808E+02  0.00000000000E+00 0.  1.
</event>
<event>
 5    1  0.1096978E-009  0.9118800E+02  0.7818608E-02  0.1130116E+00
         25   -1    0    0    0    0  0.00000000000E+00  0.00000000000E+00  0.99999998245E-14  0.12500000000E+03  0.12500000000E+03 0.  0.
        -11    1    3    3    0    0  0.45474855603E+02  0.12003446493E+02  0.92794562337E+01  0.47939060568E+02  0.51100000000E-03 0.  1.
         23    2    1    0    0    0 -0.74493324140E+00  0.27625444517E+02  0.17054562375E+01  0.97311939553E+02  0.93289789840E+02 0.  0.
         11    1    3    3    0    0 -0.46219788845E+02  0.15621998025E+02 -0.75739999963E+01  0.49372878986E+02  0.51100000000E-03 0. -1.
         22    1    1    0    0    0  0.74493324140E+00 -0.27625444517E+02 -0.17054562375E+01  0.27688060447E+02  0.00000000000E+00 0.  1.
</event>
<event>
 5    1  0.1096978E-009  0.9118800E+02  0.7818608E-02  0.1130116E+00
         25   -1    0    0    0    0  0.00000000000E+00  0.00000000000E+00  0.99999998245E-14  0.12500000000E+03  0.12500000000E+03 0.  0.
        -11    1    3    3    0    0  0.10496299230E+02  0.38652174232E+02 -0.29199381093E+02  0.49565781815E+02  0.51100000000E-03 0.  1.
         23    2    1    0    0    0  0.28223201515E+02  0.10729727183E+02  0.16051263423E+01  0.94763390075E+02  0.89810063572E+02 0.  0.
         11    1    3    3    0    0  0.17726902285E+02 -0.27922447049E+02  0.30804507436E+02  0.45197608260E+02  0.51100000000E-03 0. -1.
         22    1    1    0    0    0 -0.28223201515E+02 -0.10729727183E+02 -0.16051263423E+01  0.30236609925E+02  0.00000000000E+00 0.  1.
</event>
<event>
 5    1  0.1096978E-009  0.9118800E+02  0.7818608E-02  0.1130116E+00
         25   -1    0    0    0    0  0.00000000000E+00  0.00000000000E+00  0.99999998245E-14  0.12500000000E+03  0.12500000000E+03 0.  0.
        -11    1    3    3    0    0  0.12891290757E+02 -0.56745321711E+01 -0.47148302918E+02  0.49207196232E+02  0.51100000000E-03 0.  1.
         23    2    1    0    0    0  0.21851872018E+02  0.15641867769E+02 -0.44553945933E+01  0.97759903103E+02  0.93888102418E+02 0.  0.
         11    1    3    3    0    0  0.89605812609E+01  0.21316399940E+02  0.42692908325E+02  0.48552706870E+02  0.51100000000E-03 0. -1.
         22    1    1    0    0    0 -0.21851872018E+02 -0.15641867769E+02  0.44553945933E+01  0.27240096897E+02  0.00000000000E+00 0.  1.
</event>
<event>
 5    1  0.1096978E-009  0.9118800E+02  0.7818608E-02  0.1130116E+00
         25   -1    0    0    0    0  0.00000000000E+00  0.00000000000E+00  0.99999998245E-14  0.12500000000E+03  0.12500000000E+03 0.  0.
        -11    1    3    3    0    0 -0.23255454383E+02  0.24202893987E+02  0.19933263676E+02  0.39037561873E+02  0.51100000000E-03 0.  1.
         23    2    1    0    0    0  0.53566692135E+01 -0.36897408513E+01 -0.24999911621E+02  0.99167778383E+02  0.95744162202E+02 0.  0.
         11    1    3    3    0    0  0.28612123597E+02 -0.27892634839E+02 -0.44933175298E+02  0.60130216510E+02  0.51100000000E-03 0. -1.
         22    1    1    0    0    0 -0.53566692135E+01  0.36897408513E+01  0.24999911621E+02  0.25832221617E+02  0.00000000000E+00 0. -1.
</event>
<event>
 5    1  0.1096978E-009  0.9118800E+02  0.7818608E-02  0.1130116E+00
         25   -1    0    0    0    0  0.00000000000E+00  0.00000000000E+00  0.99999998245E-14  0.12500000000E+03  0.12500000000E+03 0.  0.
        -11    1    3    3    0    0  0.34413378417E+02  0.13843031167E+02  0.13321130637E+02  0.39412721902E+02  0.51100000000E-03 0. -1.
         23    2    1    0    0    0  0.25568468769E+01 -0.13075910769E+02 -0.25396506838E+02  0.96320748476E+02  0.91952091434E+02 0.  0.
         11    1    3    3    0    0 -0.31856531541E+02 -0.26918941936E+02 -0.38717637475E+02  0.56908026575E+02  0.51100000000E-03 0.  1.
         22    1    1    0    0    0 -0.25568468769E+01  0.13075910769E+02  0.25396506838E+02  0.28679251524E+02  0.00000000000E+00 0.  1.
</event>
<event>
 5    1  0.1096978E-009  0.9118800E+02  0.7818608E-02  0.1130116E+00
         25   -1    0    0    0    0  0.00000000000E+00  0.00000000000E+00  0.99999998245E-14  0.12500000000E+03  0.12500000000E+03 0.  0.
        -11    1    3    3    0    0 -0.20698110793E+02  0.28881298207E+02 -0.15317427297E+02  0.38693213304E+02  0.51100000000E-03 0.  1.
         23    2    1    0    0    0  0.17032634357E+02  0.14331187194E+02  0.21988066265E+02  0.93711525803E+02  0.88333920159E+02 0.  0.
         11    1    3    3    0    0  0.37730745150E+02 -0.14550111013E+02  0.37305493562E+02  0.55018312499E+02  0.51100000000E-03 0. -1.
         22    1    1    0    0    0 -0.17032634357E+02 -0.14331187194E+02 -0.21988066265E+02  0.31288474197E+02  0.00000000000E+00 0. -1.
</event>
<event>
 5    1  0.1096978E-009  0.9118800E+02  0.7818608E-02  0.1130116E+00
         25   -1    0    0    0    0  0.00000000000E+00  0.00000000000E+00  0.99999998245E-14  0.12500000000E+03  0.12500000000E+03 0.  0.
        -11    1    3    3    0    0 -0.18367457055E+01  0.52495865959E+02 -0.30516293920E+02  0.60748940505E+02  0.51100000000E-03 0.  1.
         23    2    1    0    0    0  0.74986878693E+01  0.20665974101E+02 -0.19244630586E+02  0.95782392095E+02  0.91217312083E+02 0.  0.
         11    1    3    3    0    0  0.93354335747E+01 -0.31829891858E+02  0.11271663334E+02  0.35033451590E+02  0.51100000000E-03 0. -1.
         22    1    1    0    0    0 -0.74986878693E+01 -0.20665974101E+02  0.19244630586E+02  0.29217607905E+02  0.00000000000E+00 0.  1.
</event>
<event>
 5    1  0.1096978E-009  0.9118800E+02  0.7818608E-02  0.1130116E+00
         25   -1    0    0    0    0  0.00000000000E+00  0.00000000000E+00  0.99999998245E-14  0.12500000000E+03  0.12500000000E+03 0.  0.
        -11    1    3    3    0    0  0.12940690424E+01  0.50711983396E+02  0.23935728402E+02  0.56091879707E+02  0.51100000000E-03 0. -1.
         23    2    1    0    0    0 -0.31499607804E+01  0.12175701811E+02  0.27212630982E+02  0.95021720321E+02  0.90168897522E+02 0.  0.
         11    1    3    3    0    0 -0.44440298228E+01 -0.38536281585E+02  0.32769025808E+01  0.38929840614E+02  0.51100000000E-03 0.  1.
         22    1    1    0    0    0  0.31499607804E+01 -0.12175701811E+02 -0.27212630982E+02  0.29978279679E+02  0.00000000000E+00 0. -1.
</event>
<event>
 5    1  0.1096978E-009  0.9118800E+02  0.7818608E-02  0.1130116E+00
         25   -1    0    0    0    0  0.00000000000E+00  0.00000000000E+00  0.99999998245E-14  0.12500000000E+03  0.12500000000E+03 0.  0.
        -11    1    3    3    0    0 -0.45729684428E+01 -0.15494558509E+02  0.31210125223E+02  0.35143495849E+02  0.51100000000E-03 0. -1.
         23    2    1    0    0    0 -0.23952013928E+02  0.27774038728E+02  0.10738136226E+02  0.86784770470E+02  0.77917858142E+02 0.  0.
         11    1    3    3    0    0 -0.19379045485E+02  0.43268597236E+02 -0.20471988997E+02  0.51641274621E+02  0.51100000000E-03 0.  1.
         22    1    1    0    0    0  0.23952013928E+02 -0.27774038728E+02 -0.10738136226E+02  0.38215229530E+02  0.00000000000E+00 0.  1.
</event>
<event>
 5    1  0.1096978E-009  0.9118800E+02  0.7818608E-02  0.1130116E+00
         25   -1    0    0    0    0  0.00000000000E+00  0.00000000000E+00  0.99999998245E-14  0.12500000000E+03  0.12500000000E+03 0.  0.
        -11    1    3    3    0    0 -0.20126789604E+02  0.24294240701E+02  0.23861614442E+02  0.39555965859E+02  0.51100000000E-03 0.  1.
         23    2    1    0    0    0 -0.13611282179E+02  0.34600696500E+01 -0.26812595716E+02  0.94731957883E+02  0.89766304763E+02 0.  0.
         11    1    3    3    0    0  0.65155074251E+01 -0.20834171051E+02 -0.50674210159E+02  0.55175992024E+02  0.51100000000E-03 0. -1.
         22    1    1    0    0    0  0.13611282179E+02 -0.34600696500E+01  0.26812595716E+02  0.30268042117E+02  0.00000000000E+00 0. -1.
</event>
<event>
 5    1  0.1096978E-009  0.9118800E+02  0.7818608E-02  0.1130116E+00
         25   -1    0    0    0    0  0.00000000000E+00  0.00000000000E+00  0.99999998245E-14  0.12500000000E+03  0.12500000000E+03 0.  0.
        -11    1    3    3    0    0 -0.79336204324E+01  0.14932654226E+02  0.10595335386E+02  0.19954639250E+02  0.51100000000E-03 0. -1.
         23    2    1    0    0    0  0.27961862155E+01 -0.43634747537E+02  0.12489612767E+02  0.79526928001E+02  0.65243635706E+02 0.  0.
         11    1    3    3    0    0  0.10729806648E+02 -0.58567401763E+02  0.18942773809E+01  0.59572288751E+02  0.51100000000E-03 0.  1.
         22    1    1    0    0    0 -0.27961862155E+01  0.43634747537E+02 -0.12489612767E+02  0.45473071999E+02  0.00000000000E+00 0.  1.
</event>
<event>
 5    1  0.1096978E-009  0.9118800E+02  0.7818608E-02  0.1130116E+00
         25   -1    0    0    0    0  0.00000000000E+00  0.00000000000E+00  0.99999998245E-14  0.12500000000E+03  0.12500000000E+03 0.  0.
        -11    1    3    3    0    0 -0.31240087417E+02  0.95790645868E+01 -0.43651039329E+02  0.54526276005E+02  0.51100000000E-03 0. -1.
         23    2    1    0    0    0 -0.17264964294E+02  0.22405240771E+02 -0.68983401317E+01  0.95885383350E+02  0.91358337537E+02 0.  0.
         11    1    3    3    0    0  0.13975123123E+02  0.12826176184E+02  0.36752699198E+02  0.41359107345E+02  0.51100000000E-03 0.  1.
         22    1    1    0    0    0  0.17264964294E+02 -0.22405240771E+02  0.68983401317E+01  0.29114616650E+02  0.00000000000E+00 0. -1.
</event>
<event>
 5    1  0.1096978E-009  0.9118800E+02  0.7818608E-02  0.1130116E+00
         25   -1    0    0    0    0  0.00000000000E+00  0.00000000000E+00  0.99999998245E-14  0.12500000000E+03  0.12500000000E+03 0.  0.
        -11    1    3    3    0    0  0.44108419702E+02  0.12425351329E+01  0.24953652902E+02  0.50693011112E+02  0.51100000000E-03 0.  1.
         23    2    1    0    0    0  0.22630980043E+02 -0.40211449201E+01 -0.15833486000E+02  0.97088888537E+02  0.92990441091E+02 0.  0.
         11    1    3    3    0    0 -0.21477439659E+02 -0.52636800530E+01 -0.40787138902E+02  0.46395877425E+02  0.51100000000E-03 0. -1.
         22    1    1    0    0    0 -0.22630980043E+02  0.40211449201E+01  0.15833486000E+02  0.27911111463E+02  0.00000000000E+00 0.  1.
</event>
<event>
 5    1  0.1096978E-009  0.9118800E+02  0.7818608E-02  0.1130116E+00
         25   -1    0    0    0    0  0.00000000000E+00  0.00000000000E+00  0.99999998245E-14  0.12500000000E+03  0.12500000000E+03 0.  0.
        -11    1    3    3    0    0  0.31141426613E+02  0.14195958882E+02 -0.13598454949E+02  0.36827050891E+02  0.51100000000E-03 0. -1.
         23    2    1    0    0    0 -0.22611419777E+02  0.14781252138E+02  0.10858683113E+02  0.95885180439E+02  0.91358059906E+02 0.  0.
         11    1    3    3    0    0 -0.53752846390E+02  0.58529325669E+00  0.24457138062E+02  0.59058129548E+02  0.51100000000E-03 0.  1.
         22    1    1    0    0    0  0.22611419777E+02 -0.14781252138E+02 -0.10858683113E+02  0.29114819561E+02  0.00000000000E+00 0.  1.
</event>
<event>
 5    1  0.1096978E-009  0.9118800E+02  0.7818608E-02  0.1130116E+00
         25   -1    0    0    0    0  0.00000000000E+00  0.00000000000E+00  0.99999998245E-14  0.12500000000E+03  0.12500000000E+03 0.  0.
        -11    1    3    3    0    0  0.39882652960E+02 -0.88954218930E+01  0.11503239507E+02  0.42450901724E+02  0.51100000000E-03 0. -1.
         23    2    1    0    0    0  0.87893735768E+01  0.15713506543E+02 -0.23535876365E+02  0.95367165981E+02  0.90646519488E+02 0.  0.
         11    1    3    3    0    0 -0.31093279383E+02  0.24608928436E+02 -0.35039115871E+02  0.52916264257E+02  0.51100000000E-03 0.  1.
         22    1    1    0    0    0 -0.87893735768E+01 -0.15713506543E+02  0.23535876365E+02  0.29632834019E+02  0.00000000000E+00 0.  1.
</event>
<event>
 4    1  0.1096978E-009  0.9118800E+02  0.7818608E-02  0.1130116E+00
         25   -1    0    0    0    0  0.00000000000E+00  0.00000000000E+00  0.99999998245E-14  0.12500000000E+03  0.12500000000E+03 0.  0.
        -11    1    1    0    0    0 -0.19967266848E+02  0.32803393575E+02  0.13092902711E+02  0.40573125059E+02  0.51100000000E-03 0.  1.
         11    1    1    0    0    0 -0.25541849698E+02 -0.99586748011E+01  0.90919368725E+01  0.28882946632E+02  0.51100000000E-03 0. -1.
         22    1    1    0    0    0  0.45509116546E+02 -0.22844718773E+02 -0.22184839584E+02  0.55543928309E+02  0.00000000000E+00 0.  1.
</event>
<event>
 5    1  0.1096978E-009  0.9118800E+02  0.7818608E-02  0.1130116E+00
         25   -1    0    0    0    0  0.00000000000E+00  0.00000000000E+00  0.99999998245E-14  0.12500000000E+03  0.12500000000E+03 0.  0.
        -11    1    3    3    0    0 -0.29237423074E+02 -0.20607462950E+02  0.50945007988E+01  0.36130989136E+02  0.51100000000E-03 0. -1.
         23    2    1    0    0    0 -0.36054938427E+01  0.30888433291E+02 -0.24737428631E+00  0.93900866715E+02  0.88601448514E+02 0.  0.
         11    1    3    3    0    0  0.25631929232E+02  0.51495896241E+02 -0.53418750851E+01  0.57769877579E+02  0.51100000000E-03 0.  1.
         22    1    1    0    0    0  0.36054938427E+01 -0.30888433291E+02  0.24737428631E+00  0.31099133285E+02  0.00000000000E+00 0.  1.
</event>
<event>
 5    1  0.1096978E-009  0.9118800E+02  0.7818608E-02  0.1130116E+00
         25   -1    0    0    0    0  0.00000000000E+00  0.00000000000E+00  0.99999998245E-14  0.12500000000E+03  0.12500000000E+03 0.  0.
        -11    1    3    3    0    0 -0.50859423161E+02 -0.24858482700E+02  0.16866681966E+02  0.59068689229E+02  0.51100000000E-03 0. -1.
         23    2    1    0    0    0 -0.15214395338E+02 -0.18132913263E+02  0.17846365997E+02  0.95355891847E+02  0.90630971316E+02 0.  0.
         11    1    3    3    0    0  0.35645027823E+02  0.67255694373E+01  0.97968403105E+00  0.36287202618E+02  0.51100000000E-03 0.  1.
         22    1    1    0    0    0  0.15214395338E+02  0.18132913263E+02 -0.17846365997E+02  0.29644108153E+02  0.00000000000E+00 0. -1.
</event>
<event>
 5    1  0.1096978E-009  0.9118800E+02  0.7818608E-02  0.1130116E+00
         25   -1    0    0    0    0  0.00000000000E+00  0.00000000000E+00  0.99999998245E-14  0.12500000000E+03  0.12500000000E+03 0.  0.
        -11    1    3    3    0    0 -0.38444676073E+02 -0.30951812407E+02  0.24321122135E+02  0.55022947865E+02  0.51100000000E-03 0. -1.
         23    2    1    0    0    0 -0.84818889908E+01 -0.42603065304E+01  0.28111878775E+02  0.95328963941E+02  0.90593824211E+02 0.  0.
         11    1    3    3    0    0  0.29962787083E+02  0.26691505876E+02  0.37907566396E+01  0.40306016075E+02  0.51100000000E-03 0.  1.
         22    1    1    0    0    0  0.84818889908E+01  0.42603065304E+01 -0.28111878775E+02  0.29671036059E+02  0.00000000000E+00 0. -1.
</event>
<event>
 5    1  0.1096978E-009  0.9118800E+02  0.7818608E-02  0.1130116E+00
         25   -1    0    0    0    0  0.00000000000E+00  0.00000000000E+00  0.99999998245E-14  0.12500000000E+03  0.12500000000E+03 0.  0.
        -11    1    3    3    0    0 -0.39137741380E+02 -0.28734189617E+02 -0.12445441439E+02  0.50122903609E+02  0.51100000000E-03 0. -1.
         23    2    1    0    0    0 -0.23591277441E+02  0.33676266569E+01  0.16463774581E+02  0.96035450046E+02  0.91563434358E+02 0.  0.
         11    1    3    3    0    0  0.15546463939E+02  0.32101816274E+02  0.28909216020E+02  0.45912546437E+02  0.51100000000E-03 0.  1.
         22    1    1    0    0    0  0.23591277441E+02 -0.33676266569E+01 -0.16463774581E+02  0.28964549954E+02  0.00000000000E+00 0. -1.
</event>
<event>
 5    1  0.1096978E-009  0.9118800E+02  0.7818608E-02  0.1130116E+00
         25   -1    0    0    0    0  0.00000000000E+00  0.00000000000E+00  0.99999998245E-14  0.12500000000E+03  0.12500000000E+03 0.  0.
        -11    1    3    3    0    0  0.17162945608E+02  0.14607191966E+01 -0.36834434412E+02  0.40662955638E+02  0.51100000000E-03 0.  1.
         23    2    1    0    0    0  0.30495724337E+02 -0.22499210816E+02  0.63968050933E+00  0.87097323559E+02  0.78417669500E+02 0.  0.
         11    1    3    3    0    0  0.13332778729E+02 -0.23959930013E+02  0.37474114921E+02  0.46434367921E+02  0.51100000000E-03 0. -1.
         22    1    1    0    0    0 -0.30495724337E+02  0.22499210816E+02 -0.63968050933E+00  0.37902676441E+02  0.00000000000E+00 0.  1.
</event>
<event>
 5    1  0.1096978E-009  0.9118800E+02  0.7818608E-02  0.1130116E+00
         25   -1    0    0    0    0  0.00000000000E+00  0.00000000000E+00  0.99999998245E-14  0.12500000000E+03  0.12500000000E+03 0.  0.
        -11    1    3    3    0    0  0.56565771958E+02  0.83917384041E+01  0.20322492141E+02  0.60688644059E+02  0.51100000000E-03 0.  1.
         23    2    1    0    0    0  0.21408870102E+02  0.13757426136E+02  0.88323807075E+01  0.98062712796E+02  0.94290392931E+02 0.  0.
         11    1    3    3    0    0 -0.35156901856E+02  0.53656877318E+01 -0.11490111433E+02  0.37374068737E+02  0.51100000000E-03 0. -1.
         22    1    1    0    0    0 -0.21408870102E+02 -0.13757426136E+02 -0.88323807075E+01  0.26937287204E+02  0.00000000000E+00 0.  1.
</event>
<event>
 5    1  0.1096978E-009  0.9118800E+02  0.7818608E-02  0.1130116E+00
         25   -1    0    0    0    0  0.00000000000E+00  0.00000000000E+00  0.99999998245E-14  0.12500000000E+03  0.12500000000E+03 0.  0.
        -11    1    3    3    0    0 -0.13744721053E+02  0.26633304850E+02 -0.21813568665E+02  0.37068612899E+02  0.51100000000E-03 0. -1.
         23    2    1    0    0    0  0.25893218865E+02 -0.13080381039E+02 -0.58358848656E+01  0.95409246318E+02  0.90704528991E+02 0.  0.
         11    1    3    3    0    0  0.39637939919E+02 -0.39713685889E+02  0.15977683799E+02  0.58340633419E+02  0.51100000000E-03 0.  1.
         22    1    1    0    0    0 -0.25893218865E+02  0.13080381039E+02  0.58358848656E+01  0.29590753682E+02  0.00000000000E+00 0.  1.
</event>
<event>
 5    1  0.1096978E-009  0.9118800E+02  0.7818608E-02  0.1130116E+00
         25   -1    0    0    0    0  0.00000000000E+00  0.00000000000E+00  0.99999998245E-14  0.12500000000E+03  0.12500000000E+03 0.  0.
        -11    1    3    3    0    0  0.55155430931E+01 -0.40082865455E+02  0.81089681540E+01  0.41265150957E+02  0.51100000000E-03 0. -1.
         23    2    1    0    0    0  0.17226442271E+02  0.12121854896E+00 -0.24994127441E+02  0.94644252377E+02  0.89644091240E+02 0.  0.
         11    1    3    3    0    0  0.11710899178E+02  0.40204084004E+02 -0.33103095595E+02  0.53379101420E+02  0.51100000000E-03 0.  1.
         22    1    1    0    0    0 -0.17226442271E+02 -0.12121854896E+00  0.24994127441E+02  0.30355747623E+02  0.00000000000E+00 0.  1.
</event>
<event>
 5    1  0.1096978E-009  0.9118800E+02  0.7818608E-02  0.1130116E+00
         25   -1    0    0    0    0  0.00000000000E+00  0.00000000000E+00  0.99999998245E-14  0.12500000000E+03  0.12500000000E+03 0.  0.
        -11    1    3    3    0    0  0.11794676250E+01 -0.56015385123E+02  0.59281561107E+01  0.56340549779E+02  0.51100000000E-03 0. -1.
         23    2    1    0    0    0  0.19389012686E+02 -0.22448602277E+02  0.69180641672E+01  0.94541287470E+02  0.89500401494E+02 0.  0.
         11    1    3    3    0    0  0.18209545061E+02  0.33566782845E+02  0.98990805651E+00  0.38200737691E+02  0.51100000000E-03 0.  1.
         22    1    1    0    0    0 -0.19389012686E+02  0.22448602277E+02 -0.69180641672E+01  0.30458712530E+02  0.00000000000E+00 0.  1.
</event>
<event>
 5    1  0.1096978E-009  0.9118800E+02  0.7818608E-02  0.1130116E+00
         25   -1    0    0    0    0  0.00000000000E+00  0.00000000000E+00  0.99999998245E-14  0.12500000000E+03  0.12500000000E+03 0.  0.
        -11    1    3    3    0    0  0.17168714499E+01  0.34870869858E+02 -0.31727265945E+02  0.47175678234E+02  0.51100000000E-03 0.  1.
         23    2    1    0    0    0  0.65754770829E+01 -0.13785476232E+02 -0.23812228667E+02  0.96710452674E+02  0.92480339362E+02 0.  0.
         11    1    3    3    0    0  0.48586056330E+01 -0.48656346090E+02  0.79150372775E+01  0.49534774440E+02  0.51100000000E-03 0. -1.
         22    1    1    0    0    0 -0.65754770829E+01  0.13785476232E+02  0.23812228667E+02  0.28289547326E+02  0.00000000000E+00 0.  1.
</event>
<event>
 5    1  0.1096978E-009  0.9118800E+02  0.7818608E-02  0.1130116E+00
         25   -1    0    0    0    0  0.00000000000E+00  0.00000000000E+00  0.99999998245E-14  0.12500000000E+03  0.12500000000E+03 0.  0.
        -11    1    3    3    0    0 -0.65688355322E+01 -0.12279622731E+02  0.33214661859E+02  0.36016003350E+02  0.51100000000E-03 0. -1.
         23    2    1    0    0    0  0.22627226385E+02  0.26893676060E+01 -0.17396683950E+02  0.96331747796E+02  0.91967042732E+02 0.  0.
         11    1    3    3    0    0  0.29196061917E+02  0.14968990337E+02 -0.50611345809E+02  0.60315744446E+02  0.51100000000E-03 0.  1.
         22    1    1    0    0    0 -0.22627226385E+02 -0.26893676060E+01  0.17396683950E+02  0.28668252204E+02  0.00000000000E+00 0.  1.
</event>
<event>
 5    1  0.1096978E-009  0.9118800E+02  0.7818608E-02  0.1130116E+00
         25   -1    0    0    0    0  0.00000000000E+00  0.00000000000E+00  0.99999998245E-14  0.12500000000E+03  0.12500000000E+03 0.  0.
        -11    1    3    3    0    0 -0.35811319416E+02  0.24006007091E+01  0.11858764995E+02  0.37800050126E+02  0.51100000000E-03 0. -1.
         23    2    1    0    0    0  0.19909391403E+02 -0.72900277761E+01  0.21077662476E+02  0.95103575022E+02  0.90282300345E+02 0.  0.
         11    1    3    3    0    0  0.55720710818E+02 -0.96906284852E+01  0.92188974811E+01  0.57303524896E+02  0.51100000000E-03 0.  1.
         22    1    1    0    0    0 -0.19909391403E+02  0.72900277761E+01 -0.21077662476E+02  0.29896424978E+02  0.00000000000E+00 0.  1.
</event>
<event>
 5    1  0.1096978E-009  0.9118800E+02  0.7818608E-02  0.1130116E+00
         25   -1    0    0    0    0  0.00000000000E+00  0.00000000000E+00  0.99999998245E-14  0.12500000000E+03  0.12500000000E+03 0.  0.
        -11    1    3    3    0    0  0.40014185323E+01 -0.29283242754E+02 -0.51671603605E+02  0.59527088588E+02  0.51100000000E-03 0.  1.
         23    2    1    0    0    0  0.11420986407E+02 -0.44469958062E+01 -0.27162493713E+02  0.95200406598E+02  0.90416268722E+02 0.  0.
         11    1    3    3    0    0  0.74195678745E+01  0.24836246947E+02  0.24509109892E+02  0.35673318010E+02  0.51100000000E-03 0. -1.
         22    1    1    0    0    0 -0.11420986407E+02  0.44469958062E+01  0.27162493713E+02  0.29799593402E+02  0.00000000000E+00 0.  1.
</event>
<event>
 5    1  0.1096978E-009  0.9118800E+02  0.7818608E-02  0.1130116E+00
         25   -1    0    0    0    0  0.00000000000E+00  0.00000000000E+00  0.99999998245E-14  0.12500000000E+03  0.12500000000E+03 0.  0.
        -11    1    3    3    0    0  0.41089531462E+02  0.30549835536E+02  0.68500926021E+01  0.51658163110E+02  0.51100000000E-03 0. -1.
         23    2    1    0    0    0  0.11931706414E+02  0.16272898553E+02 -0.22040898533E+02  0.95117328543E+02  0.90301340720E+02 0.  0.
         11    1    3    3    0    0 -0.29157825047E+02 -0.14276936983E+02 -0.28890991135E+02  0.43459165433E+02  0.51100000000E-03 0.  1.
         22    1    1    0    0    0 -0.11931706414E+02 -0.16272898553E+02  0.22040898533E+02  0.29882671457E+02  0.00000000000E+00 0.  1.
</event>
<event>
 5    1  0.1096978E-009  0.9118800E+02  0.7818608E-02  0.1130116E+00
         25   -1    0    0    0    0  0.00000000000E+00  0.00000000000E+00  0.99999998245E-14  0.12500000000E+03  0.12500000000E+03 0.  0.
        -11    1    3    3    0    0  0.40578449884E+01 -0.60465537987E+02 -0.12393805366E+01  0.60614218253E+02  0.51100000000E-03 0. -1.
         23    2    1    0    0    0  0.62183243662E+01 -0.25865434402E+02  0.92523286949E+01  0.96834527502E+02  0.92647891911E+02 0.  0.
         11    1    3    3    0    0  0.21604793778E+01  0.34600103585E+02  0.10491709231E+02  0.36220309249E+02  0.51100000000E-03 0.  1.
         22    1    1    0    0    0 -0.62183243662E+01  0.25865434402E+02 -0.92523286949E+01  0.28165472498E+02  0.00000000000E+00 0. -1.
</event>
<event>
 5    1  0.1096978E-009  0.9118800E+02  0.7818608E-02  0.1130116E+00
         25   -1    0    0    0    0  0.00000000000E+00  0.00000000000E+00  0.99999998245E-14  0.12500000000E+03  0.12500000000E+03 0.  0.
        -11    1    3    3    0    0  0.25441127112E+02 -0.35431906001E+02  0.10910539444E+02  0.44963438289E+02  0.51100000000E-03 0. -1.
         23    2    1    0    0    0 -0.15581473734E+01 -0.15955515298E+02 -0.25865304454E+02  0.94569418898E+02  0.89539682401E+02 0.  0.
         11    1    3    3    0    0 -0.26999274485E+02  0.19476390703E+02 -0.36775843898E+02  0.49605980609E+02  0.51100000000E-03 0.  1.
         22    1    1    0    0    0  0.15581473734E+01  0.15955515298E+02  0.25865304454E+02  0.30430581102E+02  0.00000000000E+00 0.  1.
</event>
<event>
 5    1  0.1096978E-009  0.9118800E+02  0.7818608E-02  0.1130116E+00
         25   -1    0    0    0    0  0.00000000000E+00  0.00000000000E+00  0.99999998245E-14  0.12500000000E+03  0.12500000000E+03 0.  0.
        -11    1    3    3    0    0 -0.49040473635E+02  0.38189883327E+02 -0.51277196163E+01  0.62367689965E+02  0.51100000000E-03 0.  1.
         23    2    1    0    0    0 -0.20986123451E+02  0.18447070744E+02  0.34163649488E-01  0.97058758730E+02  0.92949931052E+02 0.  0.
         11    1    3    3    0    0  0.28054350184E+02 -0.19742812583E+02  0.51618832657E+01  0.34691068765E+02  0.51100000000E-03 0. -1.
         22    1    1    0    0    0  0.20986123451E+02 -0.18447070744E+02 -0.34163649488E-01  0.27941241270E+02  0.00000000000E+00 0.  1.
</event>
<event>
 5    1  0.1096978E-009  0.9118800E+02  0.7818608E-02  0.1130116E+00
         25   -1    0    0    0    0  0.00000000000E+00  0.00000000000E+00  0.99999998245E-14  0.12500000000E+03  0.12500000000E+03 0.  0.
        -11    1    3    3    0    0 -0.27608251344E+01 -0.29123140181E+02  0.32831331705E+02  0.43973580605E+02  0.51100000000E-03 0.  1.
         23    2    1    0    0    0 -0.16181095643E+02 -0.12260575968E+02 -0.17163443218E+02  0.98415542842E+02  0.94756982384E+02 0.  0.
         11    1    3    3    0    0 -0.13420270509E+02  0.16862564213E+02 -0.49994774923E+02  0.54441962237E+02  0.51100000000E-03 0. -1.
         22    1    1    0    0    0  0.16181095643E+02  0.12260575968E+02  0.17163443218E+02  0.26584457158E+02  0.00000000000E+00 0. -1.
</event>
<event>
 5    1  0.1096978E-009  0.9118800E+02  0.7818608E-02  0.1130116E+00
         25   -1    0    0    0    0  0.00000000000E+00  0.00000000000E+00  0.99999998245E-14  0.12500000000E+03  0.12500000000E+03 0.  0.
        -11    1    3    3    0    0 -0.34346455335E+02  0.18771664110E+01  0.10574774022E+02  0.35986505717E+02  0.51100000000E-03 0.  1.
         23    2    1    0    0    0  0.19543674181E+02 -0.21078947229E+02  0.10000094439E+02  0.94565166247E+02  0.89533745380E+02 0.  0.
         11    1    3    3    0    0  0.53890129516E+02 -0.22956113640E+02 -0.57467958299E+00  0.58578660531E+02  0.51100000000E-03 0. -1.
         22    1    1    0    0    0 -0.19543674181E+02  0.21078947229E+02 -0.10000094439E+02  0.30434833753E+02  0.00000000000E+00 0. -1.
</event>
<event>
 5    1  0.1096978E-009  0.9118800E+02  0.7818608E-02  0.1130116E+00
         25   -1    0    0    0    0  0.00000000000E+00  0.00000000000E+00  0.99999998245E-14  0.12500000000E+03  0.12500000000E+03 0.  0.
        -11    1    3    3    0    0  0.29474041694E+02  0.10862411582E+02  0.45240901181E+02  0.55076766963E+02  0.51100000000E-03 0. -1.
         23    2    1    0    0    0 -0.60353959582E+01  0.13200413782E+02  0.25201514367E+02  0.95917475096E+02  0.91402236154E+02 0.  0.
         11    1    3    3    0    0 -0.35509437652E+02  0.23380022006E+01 -0.20039386814E+02  0.40840708133E+02  0.51100000000E-03 0.  1.
         22    1    1    0    0    0  0.60353959582E+01 -0.13200413782E+02 -0.25201514367E+02  0.29082524904E+02  0.00000000000E+00 0. -1.
</event>
<event>
 5    1  0.1096978E-009  0.9118800E+02  0.7818608E-02  0.1130116E+00
         25   -1    0    0    0    0  0.00000000000E+00  0.00000000000E+00  0.99999998245E-14  0.12500000000E+03  0.12500000000E+03 0.  0.
        -11    1    3    3    0    0  0.41129827916E+00  0.16528302873E+02 -0.52024896341E+02  0.54588861517E+02  0.51100000000E-03 0. -1.
         23    2    1    0    0    0 -0.17746548266E+02 -0.57217656577E+01 -0.22510945027E+02  0.95769515509E+02  0.91199664896E+02 0.  0.
         11    1    3    3    0    0 -0.18157846545E+02 -0.22250068531E+02  0.29513951314E+02  0.41180653992E+02  0.51100000000E-03 0.  1.
         22    1    1    0    0    0  0.17746548266E+02  0.57217656577E+01  0.22510945027E+02  0.29230484491E+02  0.00000000000E+00 0. -1.
</event>
<event>
 5    1  0.1096978E-009  0.9118800E+02  0.7818608E-02  0.1130116E+00
         25   -1    0    0    0    0  0.00000000000E+00  0.00000000000E+00  0.99999998245E-14  0.12500000000E+03  0.12500000000E+03 0.  0.
        -11    1    3    3    0    0  0.31570066067E+02 -0.23316831185E+02 -0.25556874084E+02  0.46834789433E+02  0.51100000000E-03 0.  1.
         23    2    1    0    0    0  0.35816738719E+01 -0.41184771782E+01  0.20352880785E+02  0.10392798068E+03  0.10176932332E+03 0.  0.
         11    1    3    3    0    0 -0.27988392196E+02  0.19198354007E+02  0.45909754869E+02  0.57093191246E+02  0.51100000000E-03 0. -1.
         22    1    1    0    0    0 -0.35816738719E+01  0.41184771782E+01 -0.20352880785E+02  0.21072019321E+02  0.00000000000E+00 0. -1.
</event>
<event>
 5    1  0.1096978E-009  0.9118800E+02  0.7818608E-02  0.1130116E+00
         25   -1    0    0    0    0  0.00000000000E+00  0.00000000000E+00  0.99999998245E-14  0.12500000000E+03  0.12500000000E+03 0.  0.
        -11    1    3    3    0    0 -0.36514331163E+02 -0.33421620966E+02  0.23168216098E+02  0.54654069983E+02  0.51100000000E-03 0. -1.
         23    2    1    0    0    0  0.25730730547E+01 -0.26421713713E+02  0.11725033992E+02  0.95979247381E+02  0.91486675780E+02 0.  0.
         11    1    3    3    0    0  0.39087404217E+02  0.69999072530E+01 -0.11443182106E+02  0.41325177398E+02  0.51100000000E-03 0.  1.
         22    1    1    0    0    0 -0.25730730547E+01  0.26421713713E+02 -0.11725033992E+02  0.29020752619E+02  0.00000000000E+00 0. -1.
</event>
<event>
 5    1  0.1096978E-009  0.9118800E+02  0.7818608E-02  0.1130116E+00
         25   -1    0    0    0    0  0.00000000000E+00  0.00000000000E+00  0.99999998245E-14  0.12500000000E+03  0.12500000000E+03 0.  0.
        -11    1    3    3    0    0 -0.41449068626E+02 -0.54515085132E+01 -0.20400915871E+00  0.41806528857E+02  0.51100000000E-03 0.  1.
         23    2    1    0    0    0  0.34620957085E+01  0.45917593894E+01 -0.28563501042E+02  0.95863357216E+02  0.91328195558E+02 0.  0.
         11    1    3    3    0    0  0.44911164335E+02  0.10043267903E+02 -0.28359491883E+02  0.54056828359E+02  0.51100000000E-03 0. -1.
         22    1    1    0    0    0 -0.34620957085E+01 -0.45917593894E+01  0.28563501042E+02  0.29136642784E+02  0.00000000000E+00 0.  1.
</event>
<event>
 5    1  0.1096978E-009  0.9118800E+02  0.7818608E-02  0.1130116E+00
         25   -1    0    0    0    0  0.00000000000E+00  0.00000000000E+00  0.99999998245E-14  0.12500000000E+03  0.12500000000E+03 0.  0.
        -11    1    3    3    0    0  0.13049158370E+02 -0.19096246778E+02  0.23457451263E+02  0.32942361712E+02  0.51100000000E-03 0. -1.
         23    2    1    0    0    0  0.32295569508E+01  0.24442597873E+02 -0.18481394883E+02  0.94187136035E+02  0.89004404435E+02 0.  0.
         11    1    3    3    0    0 -0.98196014192E+01  0.43538844651E+02 -0.41938846146E+02  0.61244774323E+02  0.51100000000E-03 0.  1.
         22    1    1    0    0    0 -0.32295569508E+01 -0.24442597873E+02  0.18481394883E+02  0.30812863965E+02  0.00000000000E+00 0.  1.
</event>
<event>
 5    1  0.1096978E-009  0.9118800E+02  0.7818608E-02  0.1130116E+00
         25   -1    0    0    0    0  0.00000000000E+00  0.00000000000E+00  0.99999998245E-14  0.12500000000E+03  0.12500000000E+03 0.  0.
        -11    1    3    3    0    0 -0.38475871083E+02 -0.48951657413E+01  0.89719556152E+01  0.39810190794E+02  0.51100000000E-03 0. -1.
         23    2    1    0    0    0  0.15367056011E+02  0.19549410523E+02  0.77473110368E+01  0.98954910433E+02  0.95465845245E+02 0.  0.
         11    1    3    3    0    0  0.53842927093E+02  0.24444576264E+02 -0.12246445784E+01  0.59144719640E+02  0.51100000000E-03 0.  1.
         22    1    1    0    0    0 -0.15367056011E+02 -0.19549410523E+02 -0.77473110368E+01  0.26045089567E+02  0.00000000000E+00 0.  1.
</event>
<event>
 5    1  0.1096978E-009  0.9118800E+02  0.7818608E-02  0.1130116E+00
         25   -1    0    0    0    0  0.00000000000E+00  0.00000000000E+00  0.99999998245E-14  0.12500000000E+03  0.12500000000E+03 0.  0.
        -11    1    3    3    0    0 -0.40562837206E+02  0.18190112861E+02 -0.42152209463E+02  0.61262000710E+02  0.51100000000E-03 0.  1.
         23    2    1    0    0    0 -0.25023206626E+02  0.74051522965E+01 -0.13435989107E+02  0.95648288744E+02  0.91033357545E+02 0.  0.
         11    1    3    3    0    0  0.15539630580E+02 -0.10784960564E+02  0.28716220356E+02  0.34386288034E+02  0.51100000000E-03 0. -1.
         22    1    1    0    0    0  0.25023206626E+02 -0.74051522965E+01  0.13435989107E+02  0.29351711256E+02  0.00000000000E+00 0.  1.
</event>
<event>
 5    1  0.1096978E-009  0.9118800E+02  0.7818608E-02  0.1130116E+00
         25   -1    0    0    0    0  0.00000000000E+00  0.00000000000E+00  0.99999998245E-14  0.12500000000E+03  0.12500000000E+03 0.  0.
        -11    1    3    3    0    0 -0.28564800582E+02 -0.17865820729E+02 -0.40061392146E+02  0.52345491912E+02  0.51100000000E-03 0.  1.
         23    2    1    0    0    0  0.47620882431E+01  0.75325400295E+01 -0.27503767961E+02  0.96088516195E+02  0.91635850238E+02 0.  0.
         11    1    3    3    0    0  0.33326888825E+02  0.25398360758E+02  0.12557624185E+02  0.43743024283E+02  0.51100000000E-03 0. -1.
         22    1    1    0    0    0 -0.47620882431E+01 -0.75325400295E+01  0.27503767961E+02  0.28911483805E+02  0.00000000000E+00 0.  1.
</event>
<event>
 5    1  0.1096978E-009  0.9118800E+02  0.7818608E-02  0.1130116E+00
         25   -1    0    0    0    0  0.00000000000E+00  0.00000000000E+00  0.99999998245E-14  0.12500000000E+03  0.12500000000E+03 0.  0.
        -11    1    3    3    0    0  0.21622617316E+02  0.48936510215E+02 -0.86562066916E+01  0.54196397723E+02  0.51100000000E-03 0.  1.
         23    2    1    0    0    0 -0.12942949587E+02  0.22753255953E+02  0.16632740449E+01  0.98770301546E+02  0.95223817327E+02 0.  0.
         11    1    3    3    0    0 -0.34565566903E+02 -0.26183254262E+02  0.10319480736E+02  0.44573903823E+02  0.51100000000E-03 0. -1.
         22    1    1    0    0    0  0.12942949587E+02 -0.22753255953E+02 -0.16632740449E+01  0.26229698454E+02  0.00000000000E+00 0.  1.
</event>
<event>
 5    1  0.1096978E-009  0.9118800E+02  0.7818608E-02  0.1130116E+00
         25   -1    0    0    0    0  0.00000000000E+00  0.00000000000E+00  0.99999998245E-14  0.12500000000E+03  0.12500000000E+03 0.  0.
        -11    1    3    3    0    0 -0.31122092799E+02  0.44553334183E+02  0.13304353286E+02  0.55951676147E+02  0.51100000000E-03 0. -1.
         23    2    1    0    0    0 -0.13103554639E+02  0.21494527741E+02  0.26846530253E+02  0.88197091778E+02  0.80151562333E+02 0.  0.
         11    1    3    3    0    0  0.18018538160E+02 -0.23058806443E+02  0.13542176967E+02  0.32245415631E+02  0.51100000000E-03 0.  1.
         22    1    1    0    0    0  0.13103554639E+02 -0.21494527741E+02 -0.26846530253E+02  0.36802908222E+02  0.00000000000E+00 0. -1.
</event>
<event>
 5    1  0.1096978E-009  0.9118800E+02  0.7818608E-02  0.1130116E+00
         25   -1    0    0    0    0  0.00000000000E+00  0.00000000000E+00  0.99999998245E-14  0.12500000000E+03  0.12500000000E+03 0.  0.
        -11    1    3    3    0    0 -0.73262192969E+01 -0.33378161323E+02 -0.16750168011E+02  0.38057105397E+02  0.51100000000E-03 0. -1.
         23    2    1    0    0    0  0.29226992225E+02  0.66106210742E+01  0.85183317447E+00  0.95022625110E+02  0.90170151811E+02 0.  0.
         11    1    3    3    0    0  0.36553211522E+02  0.39988782397E+02  0.17602001186E+02  0.56965519713E+02  0.51100000000E-03 0.  1.
         22    1    1    0    0    0 -0.29226992225E+02 -0.66106210742E+01 -0.85183317447E+00  0.29977374890E+02  0.00000000000E+00 0.  1.
</event>
<event>
 5    1  0.1096978E-009  0.9118800E+02  0.7818608E-02  0.1130116E+00
         25   -1    0    0    0    0  0.00000000000E+00  0.00000000000E+00  0.99999998245E-14  0.12500000000E+03  0.12500000000E+03 0.  0.
        -11    1    3    3    0    0 -0.15786458270E+02 -0.21943098944E+02 -0.23748792686E+02  0.35982176286E+02  0.51100000000E-03 0.  1.
         23    2    1    0    0    0  0.77994993022E+01  0.22939295501E+02  0.11943168014E+02  0.97987359817E+02  0.94190445132E+02 0.  0.
         11    1    3    3    0    0  0.23585957573E+02  0.44882394445E+02  0.35691960700E+02  0.62005183530E+02  0.51100000000E-03 0. -1.
         22    1    1    0    0    0 -0.77994993022E+01 -0.22939295501E+02 -0.11943168014E+02  0.27012640183E+02  0.00000000000E+00 0. -1.
</event>
<event>
 5    1  0.1096978E-009  0.9118800E+02  0.7818608E-02  0.1130116E+00
         25   -1    0    0    0    0  0.00000000000E+00  0.00000000000E+00  0.99999998245E-14  0.12500000000E+03  0.12500000000E+03 0.  0.
        -11    1    3    3    0    0  0.26043034071E+02 -0.23679980720E+01 -0.45773411667E+02  0.52716717030E+02  0.51100000000E-03 0. -1.
         23    2    1    0    0    0 -0.34324277704E+01 -0.20590695318E+02 -0.21550503374E+02  0.94996958658E+02  0.90134564206E+02 0.  0.
         11    1    3    3    0    0 -0.29475461841E+02 -0.18222697246E+02  0.24222908294E+02  0.42280241629E+02  0.51100000000E-03 0.  1.
         22    1    1    0    0    0  0.34324277704E+01  0.20590695318E+02  0.21550503374E+02  0.30003041342E+02  0.00000000000E+00 0. -1.
</event>
<event>
 5    1  0.1096978E-009  0.9118800E+02  0.7818608E-02  0.1130116E+00
         25   -1    0    0    0    0  0.00000000000E+00  0.00000000000E+00  0.99999998245E-14  0.12500000000E+03  0.12500000000E+03 0.  0.
        -11    1    3    3    0    0  0.26929465908E+02 -0.21721428780E+02  0.93589376330E+01  0.35841405054E+02  0.51100000000E-03 0.  1.
         23    2    1    0    0    0 -0.28410317892E+02  0.19318013326E+01  0.24708211794E+01  0.96417085936E+02  0.92082959792E+02 0.  0.
         11    1    3    3    0    0 -0.55339783800E+02  0.23653230113E+02 -0.68881164535E+01  0.60575680882E+02  0.51100000000E-03 0. -1.
         22    1    1    0    0    0  0.28410317892E+02 -0.19318013326E+01 -0.24708211794E+01  0.28582914064E+02  0.00000000000E+00 0. -1.
</event>
<event>
 5    1  0.1096978E-009  0.9118800E+02  0.7818608E-02  0.1130116E+00
         25   -1    0    0    0    0  0.00000000000E+00  0.00000000000E+00  0.99999998245E-14  0.12500000000E+03  0.12500000000E+03 0.  0.
        -11    1    3    3    0    0 -0.22833590668E+02 -0.63637762214E+01  0.35028593979E+02  0.42295069535E+02  0.51100000000E-03 0.  1.
         23    2    1    0    0    0  0.17188435928E+02 -0.23850468859E+02  0.53022103029E+01  0.95126924689E+02  0.90314623247E+02 0.  0.
         11    1    3    3    0    0  0.40022026596E+02 -0.17486692638E+02 -0.29726383676E+02  0.52831855154E+02  0.51100000000E-03 0. -1.
         22    1    1    0    0    0 -0.17188435928E+02  0.23850468859E+02 -0.53022103029E+01  0.29873075311E+02  0.00000000000E+00 0. -1.
</event>
<event>
 5    1  0.1096978E-009  0.9118800E+02  0.7818608E-02  0.1130116E+00
         25   -1    0    0    0    0  0.00000000000E+00  0.00000000000E+00  0.99999998245E-14  0.12500000000E+03  0.12500000000E+03 0.  0.
        -11    1    3    3    0    0  0.47128340676E+02  0.19028840300E+02  0.15076645939E+02  0.53013984108E+02  0.51100000000E-03 0. -1.
         23    2    1    0    0    0  0.24378401158E+02  0.51693927467E+01 -0.17092437380E+02  0.94781123780E+02  0.89834742417E+02 0.  0.
         11    1    3    3    0    0 -0.22749939517E+02 -0.13859447554E+02 -0.32169083319E+02  0.41767139672E+02  0.51100000000E-03 0.  1.
         22    1    1    0    0    0 -0.24378401158E+02 -0.51693927467E+01  0.17092437380E+02  0.30218876220E+02  0.00000000000E+00 0. -1.
</event>
<event>
 5    1  0.1096978E-009  0.9118800E+02  0.7818608E-02  0.1130116E+00
         25   -1    0    0    0    0  0.00000000000E+00  0.00000000000E+00  0.99999998245E-14  0.12500000000E+03  0.12500000000E+03 0.  0.
        -11    1    3    3    0    0  0.29644542527E+02  0.33892290740E+02  0.35026027773E+02  0.57046550247E+02  0.51100000000E-03 0.  1.
         23    2    1    0    0    0  0.14267173479E+02 -0.24448615385E+01  0.22127803400E+02  0.98558190865E+02  0.94944972043E+02 0.  0.
         11    1    3    3    0    0 -0.15377369049E+02 -0.36337152279E+02 -0.12898224372E+02  0.41511640618E+02  0.51100000000E-03 0. -1.
         22    1    1    0    0    0 -0.14267173479E+02  0.24448615385E+01 -0.22127803400E+02  0.26441809135E+02  0.00000000000E+00 0.  1.
</event>
<event>
 5    1  0.1096978E-009  0.9118800E+02  0.7818608E-02  0.1130116E+00
         25   -1    0    0    0    0  0.00000000000E+00  0.00000000000E+00  0.99999998245E-14  0.12500000000E+03  0.12500000000E+03 0.  0.
        -11    1    3    3    0    0  0.31533258131E+02 -0.31892083420E+02 -0.34131012663E+02  0.56359359284E+02  0.51100000000E-03 0. -1.
         23    2    1    0    0    0  0.29717958002E+02 -0.48799700769E+01 -0.83407308297E+01  0.93750377177E+02  0.88388881056E+02 0.  0.
         11    1    3    3    0    0 -0.18153001287E+01  0.27012113343E+02  0.25790281834E+02  0.37391017894E+02  0.51100000000E-03 0.  1.
         22    1    1    0    0    0 -0.29717958002E+02  0.48799700769E+01  0.83407308297E+01  0.31249622823E+02  0.00000000000E+00 0. -1.
</event>
<event>
 5    1  0.1096978E-009  0.9118800E+02  0.7818608E-02  0.1130116E+00
         25   -1    0    0    0    0  0.00000000000E+00  0.00000000000E+00  0.99999998245E-14  0.12500000000E+03  0.12500000000E+03 0.  0.
        -11    1    3    3    0    0 -0.52708409520E+02 -0.26406273697E+02  0.16208963531E+02  0.61140806534E+02  0.51100000000E-03 0. -1.
         23    2    1    0    0    0 -0.27602760678E+02 -0.76341402010E+01  0.15449807897E+00  0.96360580255E+02  0.92006222962E+02 0.  0.
         11    1    3    3    0    0  0.25105648842E+02  0.18772133496E+02 -0.16054465452E+02  0.35219773721E+02  0.51100000000E-03 0.  1.
         22    1    1    0    0    0  0.27602760678E+02  0.76341402010E+01 -0.15449807897E+00  0.28639419745E+02  0.00000000000E+00 0. -1.
</event>
<event>
 5    1  0.1096978E-009  0.9118800E+02  0.7818608E-02  0.1130116E+00
         25   -1    0    0    0    0  0.00000000000E+00  0.00000000000E+00  0.99999998245E-14  0.12500000000E+03  0.12500000000E+03 0.  0.
        -11    1    3    3    0    0  0.44848447788E+02  0.13721076524E+02 -0.62591226317E+01  0.47316253300E+02  0.51100000000E-03 0. -1.
         23    2    1    0    0    0  0.16496492933E+01  0.26483820034E+02  0.11944844033E+02  0.95900285820E+02  0.91378725396E+02 0.  0.
         11    1    3    3    0    0 -0.43198798495E+02  0.12762743510E+02  0.18203966664E+02  0.48584032520E+02  0.51100000000E-03 0.  1.
         22    1    1    0    0    0 -0.16496492933E+01 -0.26483820034E+02 -0.11944844033E+02  0.29099714180E+02  0.00000000000E+00 0.  1.
</event>
<event>
 5    1  0.1096978E-009  0.9118800E+02  0.7818608E-02  0.1130116E+00
         25   -1    0    0    0    0  0.00000000000E+00  0.00000000000E+00  0.99999998245E-14  0.12500000000E+03  0.12500000000E+03 0.  0.
        -11    1    3    3    0    0 -0.57186418132E+01  0.18194259536E+02  0.33764754417E+02  0.38778764619E+02  0.51100000000E-03 0. -1.
         23    2    1    0    0    0  0.18653318226E+02 -0.89558290493E+01 -0.14828017666E+02  0.99543698959E+02  0.96233698566E+02 0.  0.
         11    1    3    3    0    0  0.24371960040E+02 -0.27150088585E+02 -0.48592772083E+02  0.60764934340E+02  0.51100000000E-03 0.  1.
         22    1    1    0    0    0 -0.18653318226E+02  0.89558290493E+01  0.14828017666E+02  0.25456301041E+02  0.00000000000E+00 0.  1.
</event>
<event>
 5    1  0.1096978E-009  0.9118800E+02  0.7818608E-02  0.1130116E+00
         25   -1    0    0    0    0  0.00000000000E+00  0.00000000000E+00  0.99999998245E-14  0.12500000000E+03  0.12500000000E+03 0.  0.
        -11    1    3    3    0    0  0.90656781582E+01 -0.82345359876E+01  0.21770018089E+02  0.24978546620E+02  0.51100000000E-03 0.  1.
         23    2    1    0    0    0 -0.16550745046E+02  0.69603500071E+00 -0.34101475720E+02  0.87087966652E+02  0.78402752904E+02 0.  0.
         11    1    3    3    0    0 -0.25616423204E+02  0.89305709883E+01 -0.55871493809E+02  0.62109420032E+02  0.51100000000E-03 0. -1.
         22    1    1    0    0    0  0.16550745046E+02 -0.69603500071E+00  0.34101475720E+02  0.37912033348E+02  0.00000000000E+00 0. -1.
</event>
<event>
 5    1  0.1096978E-009  0.9118800E+02  0.7818608E-02  0.1130116E+00
         25   -1    0    0    0    0  0.00000000000E+00  0.00000000000E+00  0.99999998245E-14  0.12500000000E+03  0.12500000000E+03 0.  0.
        -11    1    3    3    0    0 -0.11419645786E+02 -0.18986025409E+02  0.31916713886E+02  0.38852980533E+02  0.51100000000E-03 0.  1.
         23    2    1    0    0    0  0.23903716870E+01  0.27829529979E+02  0.19133921267E+00  0.97067344803E+02  0.92961476972E+02 0.  0.
         11    1    3    3    0    0  0.13810017473E+02  0.46815555388E+02 -0.31725374674E+02  0.58214364270E+02  0.51100000000E-03 0. -1.
         22    1    1    0    0    0 -0.23903716870E+01 -0.27829529979E+02 -0.19133921267E+00  0.27932655197E+02  0.00000000000E+00 0. -1.
</event>
<event>
 5    1  0.1096978E-009  0.9118800E+02  0.7818608E-02  0.1130116E+00
         25   -1    0    0    0    0  0.00000000000E+00  0.00000000000E+00  0.99999998245E-14  0.12500000000E+03  0.12500000000E+03 0.  0.
        -11    1    3    3    0    0  0.41380928506E+02 -0.18198856828E+02  0.13006143177E+02  0.47039763971E+02  0.51100000000E-03 0.  1.
         23    2    1    0    0    0 -0.50241434303E+01 -0.27617352931E+02  0.12186766350E+02  0.94398080547E+02  0.89300168739E+02 0.  0.
         11    1    3    3    0    0 -0.46405071936E+02 -0.94184961030E+01 -0.81937682679E+00  0.47358316576E+02  0.51100000000E-03 0. -1.
         22    1    1    0    0    0  0.50241434303E+01  0.27617352931E+02 -0.12186766350E+02  0.30601919453E+02  0.00000000000E+00 0.  1.
</event>
<event>
 5    1  0.1096978E-009  0.9118800E+02  0.7818608E-02  0.1130116E+00
         25   -1    0    0    0    0  0.00000000000E+00  0.00000000000E+00  0.99999998245E-14  0.12500000000E+03  0.12500000000E+03 0.  0.
        -11    1    3    3    0    0 -0.37476793357E+02  0.13199304829E+00 -0.27242001802E+02  0.46331998931E+02  0.51100000000E-03 0. -1.
         23    2    1    0    0    0  0.12254422622E+02  0.13233032868E+02 -0.19667789315E+02  0.98314686263E+02  0.94623842480E+02 0.  0.
         11    1    3    3    0    0  0.49731215980E+02  0.13101039820E+02  0.75742124869E+01  0.51982687332E+02  0.51100000000E-03 0.  1.
         22    1    1    0    0    0 -0.12254422622E+02 -0.13233032868E+02  0.19667789315E+02  0.26685313737E+02  0.00000000000E+00 0. -1.
</event>
<event>
 5    1  0.1096978E-009  0.9118800E+02  0.7818608E-02  0.1130116E+00
         25   -1    0    0    0    0  0.00000000000E+00  0.00000000000E+00  0.99999998245E-14  0.12500000000E+03  0.12500000000E+03 0.  0.
        -11    1    3    3    0    0  0.24240130307E+02 -0.29437529100E+02 -0.60729972073E+01  0.38613900763E+02  0.51100000000E-03 0.  1.
         23    2    1    0    0    0 -0.15208069094E+01  0.11869706908E+02  0.25633698726E+02  0.96710614957E+02  0.92480558710E+02 0.  0.
         11    1    3    3    0    0 -0.25760937216E+02  0.41307236008E+02  0.31706695933E+02  0.58096714194E+02  0.51100000000E-03 0. -1.
         22    1    1    0    0    0  0.15208069094E+01 -0.11869706908E+02 -0.25633698726E+02  0.28289385043E+02  0.00000000000E+00 0. -1.
</event>
<event>
 5    1  0.1096978E-009  0.9118800E+02  0.7818608E-02  0.1130116E+00
         25   -1    0    0    0    0  0.00000000000E+00  0.00000000000E+00  0.99999998245E-14  0.12500000000E+03  0.12500000000E+03 0.  0.
        -11    1    3    3    0    0  0.22417547268E+02 -0.15065372399E+01 -0.25221783829E+01  0.22609234043E+02  0.51100000000E-03 0. -1.
         23    2    1    0    0    0 -0.21066983223E+02  0.27879182964E+02 -0.27309135508E+02  0.80650755282E+02  0.67362369469E+02 0.  0.
         11    1    3    3    0    0 -0.43484530491E+02  0.29385720204E+02 -0.24786957125E+02  0.58041521239E+02  0.51100000000E-03 0.  1.
         22    1    1    0    0    0  0.21066983223E+02 -0.27879182964E+02  0.27309135508E+02  0.44349244718E+02  0.00000000000E+00 0.  1.
</event>
<event>
 5    1  0.1096978E-009  0.9118800E+02  0.7818608E-02  0.1130116E+00
         25   -1    0    0    0    0  0.00000000000E+00  0.00000000000E+00  0.99999998245E-14  0.12500000000E+03  0.12500000000E+03 0.  0.
        -11    1    3    3    0    0  0.21293490586E+02  0.21901740736E+02  0.13029753608E+02  0.33209538809E+02  0.51100000000E-03 0.  1.
         23    2    1    0    0    0 -0.18027293483E+02 -0.17577691637E+02 -0.15113418787E+02  0.95633795257E+02  0.91013454028E+02 0.  0.
         11    1    3    3    0    0 -0.39320784069E+02 -0.39479432373E+02 -0.28143172395E+02  0.62424256447E+02  0.51100000000E-03 0. -1.
         22    1    1    0    0    0  0.18027293483E+02  0.17577691637E+02  0.15113418787E+02  0.29366204743E+02  0.00000000000E+00 0. -1.
</event>
<event>
 5    1  0.1096978E-009  0.9118800E+02  0.7818608E-02  0.1130116E+00
         25   -1    0    0    0    0  0.00000000000E+00  0.00000000000E+00  0.99999998245E-14  0.12500000000E+03  0.12500000000E+03 0.  0.
        -11    1    3    3    0    0 -0.24123770605E+02  0.89125878590E+01 -0.24207582409E+02  0.35318516063E+02  0.51100000000E-03 0.  1.
         23    2    1    0    0    0  0.19079805348E+01 -0.18801064015E+02  0.22546229865E+02  0.95581419495E+02  0.90941491486E+02 0.  0.
         11    1    3    3    0    0  0.26031751140E+02 -0.27713651874E+02  0.46753812274E+02  0.60262903432E+02  0.51100000000E-03 0. -1.
         22    1    1    0    0    0 -0.19079805348E+01  0.18801064015E+02 -0.22546229865E+02  0.29418580505E+02  0.00000000000E+00 0. -1.
</event>
<event>
 5    1  0.1096978E-009  0.9118800E+02  0.7818608E-02  0.1130116E+00
         25   -1    0    0    0    0  0.00000000000E+00  0.00000000000E+00  0.99999998245E-14  0.12500000000E+03  0.12500000000E+03 0.  0.
        -11    1    3    3    0    0  0.21084194923E+02  0.48532718988E+02 -0.22153121014E+02  0.57364874783E+02  0.51100000000E-03 0. -1.
         23    2    1    0    0    0  0.73104821296E+01  0.31420511337E+02  0.50687303566E+01  0.92344468936E+02  0.86377758908E+02 0.  0.
         11    1    3    3    0    0 -0.13773712793E+02 -0.17112207651E+02  0.27221851371E+02  0.34979594153E+02  0.51100000000E-03 0.  1.
         22    1    1    0    0    0 -0.73104821296E+01 -0.31420511337E+02 -0.50687303566E+01  0.32655531064E+02  0.00000000000E+00 0. -1.
</event>
<event>
 5    1  0.1096978E-009  0.9118800E+02  0.7818608E-02  0.1130116E+00
         25   -1    0    0    0    0  0.00000000000E+00  0.00000000000E+00  0.99999998245E-14  0.12500000000E+03  0.12500000000E+03 0.  0.
        -11    1    3    3    0    0  0.70881266348E+01 -0.31556017994E+02 -0.67635632782E+01  0.33041936978E+02  0.51100000000E-03 0.  1.
         23    2    1    0    0    0 -0.99964074521E+01  0.26059802034E+02  0.98667946889E+01  0.95396029296E+02  0.90686312771E+02 0.  0.
         11    1    3    3    0    0 -0.17084534087E+02  0.57615820028E+02  0.16630357967E+02  0.62354092318E+02  0.51100000000E-03 0. -1.
         22    1    1    0    0    0  0.99964074521E+01 -0.26059802034E+02 -0.98667946889E+01  0.29603970704E+02  0.00000000000E+00 0. -1.
</event>
<event>
 5    1  0.1096978E-009  0.9118800E+02  0.7818608E-02  0.1130116E+00
         25   -1    0    0    0    0  0.00000000000E+00  0.00000000000E+00  0.99999998245E-14  0.12500000000E+03  0.12500000000E+03 0.  0.
        -11    1    3    3    0    0  0.11983979555E+02 -0.54742920271E+02  0.78111912733E+01  0.56581072764E+02  0.51100000000E-03 0.  1.
         23    2    1    0    0    0  0.20546393605E+02 -0.22359044004E+02 -0.79649690368E+01  0.93606977356E+02  0.88185851127E+02 0.  0.
         11    1    3    3    0    0  0.85624140501E+01  0.32383876267E+02 -0.15776160310E+02  0.37025904592E+02  0.51100000000E-03 0. -1.
         22    1    1    0    0    0 -0.20546393605E+02  0.22359044004E+02  0.79649690368E+01  0.31393022644E+02  0.00000000000E+00 0.  1.
</event>
<event>
 5    1  0.1096978E-009  0.9118800E+02  0.7818608E-02  0.1130116E+00
         25   -1    0    0    0    0  0.00000000000E+00  0.00000000000E+00  0.99999998245E-14  0.12500000000E+03  0.12500000000E+03 0.  0.
        -11    1    3    3    0    0 -0.39621203497E+01 -0.21346023413E+02  0.26963842866E+02  0.34617913508E+02  0.51100000000E-03 0.  1.
         23    2    1    0    0    0  0.12126954547E+02  0.15956034219E+02 -0.19981258298E+02  0.96699668946E+02  0.92465762509E+02 0.  0.
         11    1    3    3    0    0  0.16089074897E+02  0.37302057633E+02 -0.46945101165E+02  0.62081755438E+02  0.51100000000E-03 0. -1.
         22    1    1    0    0    0 -0.12126954547E+02 -0.15956034219E+02  0.19981258298E+02  0.28300331054E+02  0.00000000000E+00 0. -1.
</event>
<event>
 5    1  0.1096978E-009  0.9118800E+02  0.7818608E-02  0.1130116E+00
         25   -1    0    0    0    0  0.00000000000E+00  0.00000000000E+00  0.99999998245E-14  0.12500000000E+03  0.12500000000E+03 0.  0.
        -11    1    3    3    0    0 -0.39335015327E+02 -0.22174017481E+02  0.22095870290E+02  0.50270846086E+02  0.51100000000E-03 0.  1.
         23    2    1    0    0    0 -0.12098259459E+02 -0.22957408483E+02 -0.14013870055E+02  0.95507644378E+02  0.90840030243E+02 0.  0.
         11    1    3    3    0    0  0.27236755868E+02 -0.78339100229E+00 -0.36109740345E+02  0.45236798292E+02  0.51100000000E-03 0. -1.
         22    1    1    0    0    0  0.12098259459E+02  0.22957408483E+02  0.14013870055E+02  0.29492355622E+02  0.00000000000E+00 0.  1.
</event>
<event>
 5    1  0.1096978E-009  0.9118800E+02  0.7818608E-02  0.1130116E+00
         25   -1    0    0    0    0  0.00000000000E+00  0.00000000000E+00  0.99999998245E-14  0.12500000000E+03  0.12500000000E+03 0.  0.
        -11    1    3    3    0    0 -0.88441540681E+01 -0.21947911930E+02  0.27117865232E+02  0.35990394750E+02  0.51100000000E-03 0.  1.
         23    2    1    0    0    0  0.23987330057E+02  0.96127021513E+01 -0.12446409290E+02  0.96317093067E+02  0.91947122123E+02 0.  0.
         11    1    3    3    0    0  0.32831484125E+02  0.31560614081E+02 -0.39564274523E+02  0.60326698317E+02  0.51100000000E-03 0. -1.
         22    1    1    0    0    0 -0.23987330057E+02 -0.96127021513E+01  0.12446409290E+02  0.28682906933E+02  0.00000000000E+00 0. -1.
</event>
<event>
 5    1  0.1096978E-009  0.9118800E+02  0.7818608E-02  0.1130116E+00
         25   -1    0    0    0    0  0.00000000000E+00  0.00000000000E+00  0.99999998245E-14  0.12500000000E+03  0.12500000000E+03 0.  0.
        -11    1    3    3    0    0  0.46141924382E+01  0.42129608833E+02  0.23068947499E+02  0.48253197316E+02  0.51100000000E-03 0. -1.
         23    2    1    0    0    0  0.72264526928E+01 -0.77280867699E+01  0.24619414221E+02  0.98203349086E+02  0.94476649345E+02 0.  0.
         11    1    3    3    0    0  0.26122602546E+01 -0.49857695603E+02  0.15504667216E+01  0.49950151769E+02  0.51100000000E-03 0.  1.
         22    1    1    0    0    0 -0.72264526928E+01  0.77280867699E+01 -0.24619414221E+02  0.26796650914E+02  0.00000000000E+00 0.  1.
</event>
<event>
 5    1  0.1096978E-009  0.9118800E+02  0.7818608E-02  0.1130116E+00
         25   -1    0    0    0    0  0.00000000000E+00  0.00000000000E+00  0.99999998245E-14  0.12500000000E+03  0.12500000000E+03 0.  0.
        -11    1    3    3    0    0 -0.21913781947E+02  0.11967717033E+02  0.15384372860E+02  0.29327785780E+02  0.51100000000E-03 0.  1.
         23    2    1    0    0    0 -0.21783348441E+02  0.24022463864E+02 -0.32727726936E+02  0.78927262402E+02  0.64084441173E+02 0.  0.
         11    1    3    3    0    0  0.13043350614E+00  0.12054746831E+02 -0.48112099796E+02  0.49599476622E+02  0.51100000000E-03 0. -1.
         22    1    1    0    0    0  0.21783348441E+02 -0.24022463864E+02  0.32727726936E+02  0.46072737598E+02  0.00000000000E+00 0.  1.
</event>
<event>
 5    1  0.1096978E-009  0.9118800E+02  0.7818608E-02  0.1130116E+00
         25   -1    0    0    0    0  0.00000000000E+00  0.00000000000E+00  0.99999998245E-14  0.12500000000E+03  0.12500000000E+03 0.  0.
        -11    1    3    3    0    0 -0.10072648079E+02 -0.22129490524E+02  0.56338366858E+02  0.61361096557E+02  0.51100000000E-03 0. -1.
         23    2    1    0    0    0  0.26613240976E+01 -0.62236509428E+01  0.27552091382E+02  0.96628637387E+02  0.92369688463E+02 0.  0.
         11    1    3    3    0    0  0.12733972177E+02  0.15905839581E+02 -0.28786275476E+02  0.35267540830E+02  0.51100000000E-03 0.  1.
         22    1    1    0    0    0 -0.26613240976E+01  0.62236509428E+01 -0.27552091382E+02  0.28371362613E+02  0.00000000000E+00 0. -1.
</event>
<event>
 5    1  0.1096978E-009  0.9118800E+02  0.7818608E-02  0.1130116E+00
         25   -1    0    0    0    0  0.00000000000E+00  0.00000000000E+00  0.99999998245E-14  0.12500000000E+03  0.12500000000E+03 0.  0.
        -11    1    3    3    0    0 -0.78457006489E+01 -0.37102995776E+02 -0.39461314313E+02  0.54730088998E+02  0.51100000000E-03 0. -1.
         23    2    1    0    0    0 -0.40442260841E+01 -0.12720393802E+02 -0.43286766931E+02  0.79702004741E+02  0.65578206634E+02 0.  0.
         11    1    3    3    0    0  0.38014745648E+01  0.24382601974E+02 -0.38254526186E+01  0.24971915743E+02  0.51100000000E-03 0.  1.
         22    1    1    0    0    0  0.40442260841E+01  0.12720393802E+02  0.43286766931E+02  0.45297995259E+02  0.00000000000E+00 0. -1.
</event>
<event>
 5    1  0.1096978E-009  0.9118800E+02  0.7818608E-02  0.1130116E+00
         25   -1    0    0    0    0  0.00000000000E+00  0.00000000000E+00  0.99999998245E-14  0.12500000000E+03  0.12500000000E+03 0.  0.
        -11    1    3    3    0    0 -0.20437494540E+01  0.30572272863E+02 -0.11224861592E+00  0.30640714415E+02  0.51100000000E-03 0.  1.
         23    2    1    0    0    0 -0.16466268208E+02 -0.28435413926E+02 -0.57321802724E+01  0.91644810831E+02  0.85359256720E+02 0.  0.
         11    1    3    3    0    0 -0.14422518754E+02 -0.59007686789E+02 -0.56199316565E+01  0.61004096416E+02  0.51100000000E-03 0. -1.
         22    1    1    0    0    0  0.16466268208E+02  0.28435413926E+02  0.57321802724E+01  0.33355189169E+02  0.00000000000E+00 0. -1.
</event>
<event>
 5    1  0.1096978E-009  0.9118800E+02  0.7818608E-02  0.1130116E+00
         25   -1    0    0    0    0  0.00000000000E+00  0.00000000000E+00  0.99999998245E-14  0.12500000000E+03  0.12500000000E+03 0.  0.
        -11    1    3    3    0    0  0.28450132169E+02 -0.42049919478E+02 -0.32907236770E+02  0.60501999807E+02  0.51100000000E-03 0.  1.
         23    2    1    0    0    0  0.14429100326E+02 -0.13491337231E+02 -0.24726396126E+02  0.93351780747E+02  0.87823374945E+02 0.  0.
         11    1    3    3    0    0 -0.14021031843E+02  0.28558582247E+02  0.81808406438E+01  0.32849780940E+02  0.51100000000E-03 0. -1.
         22    1    1    0    0    0 -0.14429100326E+02  0.13491337231E+02  0.24726396126E+02  0.31648219253E+02  0.00000000000E+00 0.  1.
</event>
<event>
 5    1  0.1096978E-009  0.9118800E+02  0.7818608E-02  0.1130116E+00
         25   -1    0    0    0    0  0.00000000000E+00  0.00000000000E+00  0.99999998245E-14  0.12500000000E+03  0.12500000000E+03 0.  0.
        -11    1    3    3    0    0  0.24903642191E+02 -0.17637837457E+02 -0.17390041984E+02  0.35124041126E+02  0.51100000000E-03 0.  1.
         23    2    1    0    0    0 -0.22398647101E+02  0.17096834391E+02 -0.12982818095E+02  0.93974934265E+02  0.88705882366E+02 0.  0.
         11    1    3    3    0    0 -0.47302289292E+02  0.34734671848E+02  0.44072238893E+01  0.58850893139E+02  0.51100000000E-03 0. -1.
         22    1    1    0    0    0  0.22398647101E+02 -0.17096834391E+02  0.12982818095E+02  0.31025065735E+02  0.00000000000E+00 0. -1.
</event>
<event>
 5    1  0.1096978E-009  0.9118800E+02  0.7818608E-02  0.1130116E+00
         25   -1    0    0    0    0  0.00000000000E+00  0.00000000000E+00  0.99999998245E-14  0.12500000000E+03  0.12500000000E+03 0.  0.
        -11    1    3    3    0    0 -0.24990443864E+02 -0.27952836054E+02  0.20335892427E+02  0.42654798664E+02  0.51100000000E-03 0.  1.
         23    2    1    0    0    0 -0.13986582236E+02 -0.48669261266E+01 -0.25712162737E+02  0.95328013798E+02  0.90592513209E+02 0.  0.
         11    1    3    3    0    0  0.11003861628E+02  0.23085909927E+02 -0.46048055164E+02  0.52673215134E+02  0.51100000000E-03 0. -1.
         22    1    1    0    0    0  0.13986582236E+02  0.48669261266E+01  0.25712162737E+02  0.29671986202E+02  0.00000000000E+00 0. -1.
</event>
<event>
 5    1  0.1096978E-009  0.9118800E+02  0.7818608E-02  0.1130116E+00
         25   -1    0    0    0    0  0.00000000000E+00  0.00000000000E+00  0.99999998245E-14  0.12500000000E+03  0.12500000000E+03 0.  0.
        -11    1    3    3    0    0 -0.12866998323E+01 -0.38707001156E+02  0.85243023464E+01  0.39655406513E+02  0.51100000000E-03 0. -1.
         23    2    1    0    0    0  0.81516548718E+01  0.16042716957E+02  0.21755670069E+02  0.96766554857E+02  0.92556138177E+02 0.  0.
         11    1    3    3    0    0  0.94383547041E+01  0.54749718114E+02  0.13231367722E+02  0.57111148343E+02  0.51100000000E-03 0.  1.
         22    1    1    0    0    0 -0.81516548718E+01 -0.16042716957E+02 -0.21755670069E+02  0.28233445143E+02  0.00000000000E+00 0.  1.
</event>
<event>
 5    1  0.1096978E-009  0.9118800E+02  0.7818608E-02  0.1130116E+00
         25   -1    0    0    0    0  0.00000000000E+00  0.00000000000E+00  0.99999998245E-14  0.12500000000E+03  0.12500000000E+03 0.  0.
        -11    1    3    3    0    0 -0.26439687424E+02 -0.33081346875E+02  0.18903310877E+02  0.46376370540E+02  0.51100000000E-03 0.  1.
         23    2    1    0    0    0  0.23541216491E+01 -0.38983733129E+02 -0.67220310136E+01  0.85370982369E+02  0.75615776081E+02 0.  0.
         11    1    3    3    0    0  0.28793809073E+02 -0.59023862544E+01 -0.25625341891E+02  0.38994611829E+02  0.51100000000E-03 0. -1.
         22    1    1    0    0    0 -0.23541216491E+01  0.38983733129E+02  0.67220310136E+01  0.39629017631E+02  0.00000000000E+00 0.  1.
</event>
<event>
 5    1  0.1096978E-009  0.9118800E+02  0.7818608E-02  0.1130116E+00
         25   -1    0    0    0    0  0.00000000000E+00  0.00000000000E+00  0.99999998245E-14  0.12500000000E+03  0.12500000000E+03 0.  0.
        -11    1    3    3    0    0  0.17764141629E+02 -0.44928330101E+01 -0.26057400596E+02  0.31854958834E+02  0.51100000000E-03 0. -1.
         23    2    1    0    0    0 -0.97980356587E+01  0.12601228535E+02  0.26763288177E+02  0.93838067175E+02  0.88512805818E+02 0.  0.
         11    1    3    3    0    0 -0.27562177287E+02  0.17094061545E+02  0.52820688772E+02  0.61983108341E+02  0.51100000000E-03 0.  1.
         22    1    1    0    0    0  0.97980356587E+01 -0.12601228535E+02 -0.26763288177E+02  0.31161932825E+02  0.00000000000E+00 0.  1.
</event>
<event>
 5    1  0.1096978E-009  0.9118800E+02  0.7818608E-02  0.1130116E+00
         25   -1    0    0    0    0  0.00000000000E+00  0.00000000000E+00  0.99999998245E-14  0.12500000000E+03  0.12500000000E+03 0.  0.
        -11    1    3    3    0    0  0.14592914480E+02 -0.52668787101E+02 -0.67761950295E+00  0.54657236082E+02  0.51100000000E-03 0.  1.
         23    2    1    0    0    0  0.22582665195E+02 -0.14162590638E+02  0.11705113147E+02  0.95887023260E+02  0.91360581297E+02 0.  0.
         11    1    3    3    0    0  0.79897507156E+01  0.38506196463E+02  0.12382732650E+02  0.41229787177E+02  0.51100000000E-03 0. -1.
         22    1    1    0    0    0 -0.22582665195E+02  0.14162590638E+02 -0.11705113147E+02  0.29112976740E+02  0.00000000000E+00 0. -1.
</event>
<event>
 5    1  0.1096978E-009  0.9118800E+02  0.7818608E-02  0.1130116E+00
         25   -1    0    0    0    0  0.00000000000E+00  0.00000000000E+00  0.99999998245E-14  0.12500000000E+03  0.12500000000E+03 0.  0.
        -11    1    3    3    0    0  0.40238532712E+02 -0.21828505342E+02 -0.13024795429E+02  0.47594836448E+02  0.51100000000E-03 0.  1.
         23    2    1    0    0    0  0.38400818684E+01 -0.18385054303E+02  0.20498279390E+02  0.97198275082E+02  0.93137365061E+02 0.  0.
         11    1    3    3    0    0 -0.36398450843E+02  0.34434510395E+01  0.33523074818E+02  0.49603438635E+02  0.51100000000E-03 0. -1.
         22    1    1    0    0    0 -0.38400818684E+01  0.18385054303E+02 -0.20498279390E+02  0.27801724918E+02  0.00000000000E+00 0. -1.
</event>
<event>
 5    1  0.1096978E-009  0.9118800E+02  0.7818608E-02  0.1130116E+00
         25   -1    0    0    0    0  0.00000000000E+00  0.00000000000E+00  0.99999998245E-14  0.12500000000E+03  0.12500000000E+03 0.  0.
        -11    1    3    3    0    0  0.10677149158E+02 -0.40476072222E+02  0.32445662813E+02  0.52962580869E+02  0.51100000000E-03 0.  1.
         23    2    1    0    0    0  0.23113289129E+02 -0.19362429607E+02 -0.14796639882E+01  0.94811968925E+02  0.89877651456E+02 0.  0.
         11    1    3    3    0    0  0.12436139971E+02  0.21113642615E+02 -0.33925326801E+02  0.41849388056E+02  0.51100000000E-03 0. -1.
         22    1    1    0    0    0 -0.23113289129E+02  0.19362429607E+02  0.14796639882E+01  0.30188031075E+02  0.00000000000E+00 0.  1.
</event>
<event>
 5    1  0.1096978E-009  0.9118800E+02  0.7818608E-02  0.1130116E+00
         25   -1    0    0    0    0  0.00000000000E+00  0.00000000000E+00  0.99999998245E-14  0.12500000000E+03  0.12500000000E+03 0.  0.
        -11    1    3    3    0    0 -0.27188231241E+02  0.20336658542E+02 -0.29729881968E+02  0.45129208732E+02  0.51100000000E-03 0.  1.
         23    2    1    0    0    0  0.18902377954E+02  0.13103008881E+01 -0.22613388696E+02  0.95497760610E+02  0.90826428711E+02 0.  0.
         11    1    3    3    0    0  0.46090609195E+02 -0.19026357654E+02  0.71164932720E+01  0.50368551878E+02  0.51100000000E-03 0. -1.
         22    1    1    0    0    0 -0.18902377954E+02 -0.13103008881E+01  0.22613388696E+02  0.29502239390E+02  0.00000000000E+00 0. -1.
</event>
<event>
 5    1  0.1096978E-009  0.9118800E+02  0.7818608E-02  0.1130116E+00
         25   -1    0    0    0    0  0.00000000000E+00  0.00000000000E+00  0.99999998245E-14  0.12500000000E+03  0.12500000000E+03 0.  0.
        -11    1    3    3    0    0  0.18880513235E+02 -0.65036392130E+01  0.38393557281E+02  0.43276279230E+02  0.51100000000E-03 0. -1.
         23    2    1    0    0    0  0.25687690240E+02 -0.96983195455E+00 -0.13540353442E+02  0.95945926702E+02  0.91441137763E+02 0.  0.
         11    1    3    3    0    0  0.68071770055E+01  0.55338072585E+01 -0.51933910723E+02  0.52669647472E+02  0.51100000000E-03 0.  1.
         22    1    1    0    0    0 -0.25687690240E+02  0.96983195455E+00  0.13540353442E+02  0.29054073298E+02  0.00000000000E+00 0.  1.
</event>
<event>
 5    1  0.1096978E-009  0.9118800E+02  0.7818608E-02  0.1130116E+00
         25   -1    0    0    0    0  0.00000000000E+00  0.00000000000E+00  0.99999998245E-14  0.12500000000E+03  0.12500000000E+03 0.  0.
        -11    1    3    3    0    0  0.21948657646E+02  0.10361749850E+02  0.23705807601E+02  0.33927492490E+02  0.51100000000E-03 0.  1.
         23    2    1    0    0    0 -0.24271823070E+02  0.11912282843E+01 -0.16298086840E+02  0.95739650470E+02  0.91158722114E+02 0.  0.
         11    1    3    3    0    0 -0.46220480716E+02 -0.91705215653E+01 -0.40003894441E+02  0.61812157980E+02  0.51100000000E-03 0. -1.
         22    1    1    0    0    0  0.24271823070E+02 -0.11912282843E+01  0.16298086840E+02  0.29260349530E+02  0.00000000000E+00 0. -1.
</event>
<event>
 5    1  0.1096978E-009  0.9118800E+02  0.7818608E-02  0.1130116E+00
         25   -1    0    0    0    0  0.00000000000E+00  0.00000000000E+00  0.99999998245E-14  0.12500000000E+03  0.12500000000E+03 0.  0.
        -11    1    3    3    0    0  0.84036722780E+01 -0.26678330894E+02  0.44922175490E+02  0.52918398483E+02  0.51100000000E-03 0. -1.
         23    2    1    0    0    0  0.22336933975E+02  0.38721498590E+01  0.20465935632E+02  0.94458443307E+02  0.89384622989E+02 0.  0.
         11    1    3    3    0    0  0.13933261697E+02  0.30550480753E+02 -0.24456239858E+02  0.41540044824E+02  0.51100000000E-03 0.  1.
         22    1    1    0    0    0 -0.22336933975E+02 -0.38721498590E+01 -0.20465935632E+02  0.30541556693E+02  0.00000000000E+00 0.  1.
</event>
<event>
 5    1  0.1096978E-009  0.9118800E+02  0.7818608E-02  0.1130116E+00
         25   -1    0    0    0    0  0.00000000000E+00  0.00000000000E+00  0.99999998245E-14  0.12500000000E+03  0.12500000000E+03 0.  0.
        -11    1    3    3    0    0 -0.13650832293E+02  0.35123367972E+02 -0.27445418363E+02  0.46618099375E+02  0.51100000000E-03 0.  1.
         23    2    1    0    0    0  0.25253188620E+02  0.13368471683E+02 -0.74484686457E+01  0.95471721083E+02  0.90790584704E+02 0.  0.
         11    1    3    3    0    0  0.38904020913E+02 -0.21754896289E+02  0.19996949717E+02  0.48853621708E+02  0.51100000000E-03 0. -1.
         22    1    1    0    0    0 -0.25253188620E+02 -0.13368471683E+02  0.74484686457E+01  0.29528278917E+02  0.00000000000E+00 0.  1.
</event>
<event>
 5    1  0.1096978E-009  0.9118800E+02  0.7818608E-02  0.1130116E+00
         25   -1    0    0    0    0  0.00000000000E+00  0.00000000000E+00  0.99999998245E-14  0.12500000000E+03  0.12500000000E+03 0.  0.
        -11    1    3    3    0    0  0.21516615641E+02 -0.28008834282E+02  0.11939092823E+02  0.37282723669E+02  0.51100000000E-03 0.  1.
         23    2    1    0    0    0 -0.21391239233E+01  0.24787996384E+02  0.16227529215E+02  0.95295567329E+02  0.90547732342E+02 0.  0.
         11    1    3    3    0    0 -0.23655739564E+02  0.52796830665E+02  0.42884363922E+01  0.58012843661E+02  0.51100000000E-03 0. -1.
         22    1    1    0    0    0  0.21391239233E+01 -0.24787996384E+02 -0.16227529215E+02  0.29704432671E+02  0.00000000000E+00 0. -1.
</event>
<event>
 5    1  0.1096978E-009  0.9118800E+02  0.7818608E-02  0.1130116E+00
         25   -1    0    0    0    0  0.00000000000E+00  0.00000000000E+00  0.99999998245E-14  0.12500000000E+03  0.12500000000E+03 0.  0.
        -11    1    3    3    0    0  0.39132852897E+02 -0.74064726821E+01 -0.51161227791E+01  0.40154834404E+02  0.51100000000E-03 0. -1.
         23    2    1    0    0    0 -0.55507150628E+01 -0.11483156262E+02  0.26869090298E+02  0.95257415564E+02  0.90495048987E+02 0.  0.
         11    1    3    3    0    0 -0.44683567960E+02 -0.40766835798E+01  0.31985213078E+02  0.55102581160E+02  0.51100000000E-03 0.  1.
         22    1    1    0    0    0  0.55507150628E+01  0.11483156262E+02 -0.26869090298E+02  0.29742584436E+02  0.00000000000E+00 0.  1.
</event>
<event>
 5    1  0.1096978E-009  0.9118800E+02  0.7818608E-02  0.1130116E+00
         25   -1    0    0    0    0  0.00000000000E+00  0.00000000000E+00  0.99999998245E-14  0.12500000000E+03  0.12500000000E+03 0.  0.
        -11    1    3    3    0    0  0.65882269533E+01 -0.27464013424E+00 -0.35617624302E+02  0.36222856358E+02  0.51100000000E-03 0.  1.
         23    2    1    0    0    0  0.43676535097E+01 -0.27609166459E+02  0.14617344807E+02  0.93456232962E+02  0.87971917340E+02 0.  0.
         11    1    3    3    0    0 -0.22205734436E+01 -0.27334526325E+02  0.50234969109E+02  0.57233376604E+02  0.51100000000E-03 0. -1.
         22    1    1    0    0    0 -0.43676535097E+01  0.27609166459E+02 -0.14617344807E+02  0.31543767038E+02  0.00000000000E+00 0. -1.
</event>
<event>
 5    1  0.1096978E-009  0.9118800E+02  0.7818608E-02  0.1130116E+00
         25   -1    0    0    0    0  0.00000000000E+00  0.00000000000E+00  0.99999998245E-14  0.12500000000E+03  0.12500000000E+03 0.  0.
        -11    1    3    3    0    0 -0.28773783482E+02 -0.24688096380E+02  0.76298646183E+01  0.38673602795E+02  0.51100000000E-03 0. -1.
         23    2    1    0    0    0  0.16972582792E+02 -0.81759161905E+01 -0.22321057722E+02  0.95791374733E+02  0.91229620646E+02 0.  0.
         11    1    3    3    0    0  0.45746366274E+02  0.16512180190E+02 -0.29950922340E+02  0.57117771938E+02  0.51100000000E-03 0.  1.
         22    1    1    0    0    0 -0.16972582792E+02  0.81759161905E+01  0.22321057722E+02  0.29208625267E+02  0.00000000000E+00 0.  1.
</event>
<event>
 5    1  0.1096978E-009  0.9118800E+02  0.7818608E-02  0.1130116E+00
         25   -1    0    0    0    0  0.00000000000E+00  0.00000000000E+00  0.99999998245E-14  0.12500000000E+03  0.12500000000E+03 0.  0.
        -11    1    3    3    0    0  0.83163395546E+01  0.25094871927E+02 -0.48929527873E+02  0.55614861312E+02  0.51100000000E-03 0. -1.
         23    2    1    0    0    0  0.17063805035E+02  0.21963118818E+02 -0.10307679079E+02  0.95338572549E+02  0.90607081054E+02 0.  0.
         11    1    3    3    0    0  0.87474654802E+01 -0.31317531098E+01  0.38621848794E+02  0.39723711237E+02  0.51100000000E-03 0.  1.
         22    1    1    0    0    0 -0.17063805035E+02 -0.21963118818E+02  0.10307679079E+02  0.29661427451E+02  0.00000000000E+00 0. -1.
</event>
<event>
 5    1  0.1096978E-009  0.9118800E+02  0.7818608E-02  0.1130116E+00
         25   -1    0    0    0    0  0.00000000000E+00  0.00000000000E+00  0.99999998245E-14  0.12500000000E+03  0.12500000000E+03 0.  0.
        -11    1    3    3    0    0 -0.32670361443E+02  0.56615264299E+01  0.13321671816E+02  0.35733350509E+02  0.51100000000E-03 0.  1.
         23    2    1    0    0    0  0.26940450482E+02  0.85063919465E+01  0.65780913017E+00  0.96740854773E+02  0.92521422888E+02 0.  0.
         11    1    3    3    0    0  0.59610811925E+02  0.28448655166E+01 -0.12663862686E+02  0.61007504264E+02  0.51100000000E-03 0. -1.
         22    1    1    0    0    0 -0.26940450482E+02 -0.85063919465E+01 -0.65780913017E+00  0.28259145227E+02  0.00000000000E+00 0. -1.
</event>
<event>
 5    1  0.1096978E-009  0.9118800E+02  0.7818608E-02  0.1130116E+00
         25   -1    0    0    0    0  0.00000000000E+00  0.00000000000E+00  0.99999998245E-14  0.12500000000E+03  0.12500000000E+03 0.  0.
        -11    1    3    3    0    0  0.29654027448E+02  0.25190590276E+02 -0.39505339223E+02  0.55449066806E+02  0.51100000000E-03 0.  1.
         23    2    1    0    0    0  0.24066076971E+02  0.15297257278E+02 -0.75328650362E-01  0.96483551844E+02  0.92173141213E+02 0.  0.
         11    1    3    3    0    0 -0.55879504769E+01 -0.98933329978E+01  0.39430010572E+02  0.41034485038E+02  0.51100000000E-03 0. -1.
         22    1    1    0    0    0 -0.24066076971E+02 -0.15297257278E+02  0.75328650362E-01  0.28516448156E+02  0.00000000000E+00 0.  1.
</event>
<event>
 5    1  0.1096978E-009  0.9118800E+02  0.7818608E-02  0.1130116E+00
         25   -1    0    0    0    0  0.00000000000E+00  0.00000000000E+00  0.99999998245E-14  0.12500000000E+03  0.12500000000E+03 0.  0.
        -11    1    3    3    0    0 -0.10590602405E+02 -0.25466002030E+02 -0.11119465917E+02  0.29737529171E+02  0.51100000000E-03 0. -1.
         23    2    1    0    0    0 -0.11227815701E+01  0.27454308336E+02  0.19219580899E+02  0.91468045470E+02  0.85100008035E+02 0.  0.
         11    1    3    3    0    0  0.94678208349E+01  0.52920310366E+02  0.30339046816E+02  0.61730516299E+02  0.51100000000E-03 0.  1.
         22    1    1    0    0    0  0.11227815701E+01 -0.27454308336E+02 -0.19219580899E+02  0.33531954530E+02  0.00000000000E+00 0.  1.
</event>
<event>
 5    1  0.1096978E-009  0.9118800E+02  0.7818608E-02  0.1130116E+00
         25   -1    0    0    0    0  0.00000000000E+00  0.00000000000E+00  0.99999998245E-14  0.12500000000E+03  0.12500000000E+03 0.  0.
        -11    1    3    3    0    0 -0.25993652052E+02  0.18948421199E+02  0.38522526953E+02  0.50186628658E+02  0.51100000000E-03 0.  1.
         23    2    1    0    0    0 -0.27860150737E+02  0.96766282829E+01 -0.53144069727E+01  0.95032216373E+02  0.90183446892E+02 0.  0.
         11    1    3    3    0    0 -0.18664986849E+01 -0.92717929161E+01 -0.43836933926E+02  0.44845587715E+02  0.51100000000E-03 0. -1.
         22    1    1    0    0    0  0.27860150737E+02 -0.96766282829E+01  0.53144069727E+01  0.29967783627E+02  0.00000000000E+00 0.  1.
</event>
<event>
 5    1  0.1096978E-009  0.9118800E+02  0.7818608E-02  0.1130116E+00
         25   -1    0    0    0    0  0.00000000000E+00  0.00000000000E+00  0.99999998245E-14  0.12500000000E+03  0.12500000000E+03 0.  0.
        -11    1    3    3    0    0  0.99421604925E+01 -0.27104485220E+02  0.30424629313E+02  0.41942314473E+02  0.51100000000E-03 0.  1.
         23    2    1    0    0    0  0.23290791758E+02 -0.48251119955E+01 -0.16828943092E+02  0.95863150272E+02  0.91327912316E+02 0.  0.
         11    1    3    3    0    0  0.13348631266E+02  0.22279373224E+02 -0.47253572405E+02  0.53920835799E+02  0.51100000000E-03 0. -1.
         22    1    1    0    0    0 -0.23290791758E+02  0.48251119955E+01  0.16828943092E+02  0.29136849728E+02  0.00000000000E+00 0. -1.
</event>
<event>
 5    1  0.1096978E-009  0.9118800E+02  0.7818608E-02  0.1130116E+00
         25   -1    0    0    0    0  0.00000000000E+00  0.00000000000E+00  0.99999998245E-14  0.12500000000E+03  0.12500000000E+03 0.  0.
        -11    1    3    3    0    0 -0.10326667238E+02 -0.33169848846E+02  0.45647771899E+02  0.57363734261E+02  0.51100000000E-03 0.  1.
         23    2    1    0    0    0 -0.11079547602E+01 -0.26957535272E+02  0.76472527837E+01  0.96956877013E+02  0.92812818367E+02 0.  0.
         11    1    3    3    0    0  0.92187124783E+01  0.62123135733E+01 -0.38000519116E+02  0.39593142752E+02  0.51100000000E-03 0. -1.
         22    1    1    0    0    0  0.11079547602E+01  0.26957535272E+02 -0.76472527837E+01  0.28043122987E+02  0.00000000000E+00 0.  1.
</event>
<event>
 5    1  0.1096978E-009  0.9118800E+02  0.7818608E-02  0.1130116E+00
         25   -1    0    0    0    0  0.00000000000E+00  0.00000000000E+00  0.99999998245E-14  0.12500000000E+03  0.12500000000E+03 0.  0.
        -11    1    3    3    0    0  0.46140674729E+02  0.94597619695E+01 -0.39762252594E+02  0.61639968305E+02  0.51100000000E-03 0. -1.
         23    2    1    0    0    0  0.17024433841E+02  0.29791314274E+01 -0.24136546928E+02  0.95313648435E+02  0.90572689640E+02 0.  0.
         11    1    3    3    0    0 -0.29116240888E+02 -0.64806305422E+01  0.15625705666E+02  0.33673680130E+02  0.51100000000E-03 0.  1.
         22    1    1    0    0    0 -0.17024433841E+02 -0.29791314274E+01  0.24136546928E+02  0.29686351565E+02  0.00000000000E+00 0. -1.
</event>
<event>
 5    1  0.1096978E-009  0.9118800E+02  0.7818608E-02  0.1130116E+00
         25   -1    0    0    0    0  0.00000000000E+00  0.00000000000E+00  0.99999998245E-14  0.12500000000E+03  0.12500000000E+03 0.  0.
        -11    1    3    3    0    0  0.48505752458E+02  0.22491244520E+02 -0.87196373273E+01  0.54172836154E+02  0.51100000000E-03 0. -1.
         23    2    1    0    0    0  0.24478263050E+02 -0.12292439849E+02 -0.80366881732E+01  0.96453935540E+02  0.92132968502E+02 0.  0.
         11    1    3    3    0    0 -0.24027489408E+02 -0.34783684368E+02  0.68294915407E+00  0.42281099386E+02  0.51100000000E-03 0.  1.
         22    1    1    0    0    0 -0.24478263050E+02  0.12292439849E+02  0.80366881732E+01  0.28546064460E+02  0.00000000000E+00 0. -1.
</event>
<event>
 5    1  0.1096978E-009  0.9118800E+02  0.7818608E-02  0.1130116E+00
         25   -1    0    0    0    0  0.00000000000E+00  0.00000000000E+00  0.99999998245E-14  0.12500000000E+03  0.12500000000E+03 0.  0.
        -11    1    3    3    0    0  0.11035425276E+01  0.29707693701E+02  0.33029543937E+00  0.29730017936E+02  0.51100000000E-03 0.  1.
         23    2    1    0    0    0  0.45676035908E+01 -0.31319960855E+02 -0.10177876143E+02  0.91752562304E+02  0.85516902283E+02 0.  0.
         11    1    3    3    0    0  0.34640610631E+01 -0.61027654556E+02 -0.10508171582E+02  0.62022544368E+02  0.51100000000E-03 0. -1.
         22    1    1    0    0    0 -0.45676035908E+01  0.31319960855E+02  0.10177876143E+02  0.33247437696E+02  0.00000000000E+00 0. -1.
</event>
<event>
 5    1  0.1096978E-009  0.9118800E+02  0.7818608E-02  0.1130116E+00
         25   -1    0    0    0    0  0.00000000000E+00  0.00000000000E+00  0.99999998245E-14  0.12500000000E+03  0.12500000000E+03 0.  0.
        -11    1    3    3    0    0 -0.11376362365E+02 -0.84035397021E+00 -0.35375668332E+02  0.37169419227E+02  0.51100000000E-03 0.  1.
         23    2    1    0    0    0  0.37477326387E+01  0.26023096934E+02  0.13874222735E+02  0.95272216187E+02  0.90515490645E+02 0.  0.
         11    1    3    3    0    0  0.15124095004E+02  0.26863450904E+02  0.49249891067E+02  0.58102796960E+02  0.51100000000E-03 0. -1.
         22    1    1    0    0    0 -0.37477326387E+01 -0.26023096934E+02 -0.13874222735E+02  0.29727783813E+02  0.00000000000E+00 0. -1.
</event>
<event>
 5    1  0.1096978E-009  0.9118800E+02  0.7818608E-02  0.1130116E+00
         25   -1    0    0    0    0  0.00000000000E+00  0.00000000000E+00  0.99999998245E-14  0.12500000000E+03  0.12500000000E+03 0.  0.
        -11    1    3    3    0    0  0.27276844644E+02  0.22105685902E+02  0.19532281037E+01  0.35163940383E+02  0.51100000000E-03 0. -1.
         23    2    1    0    0    0 -0.10099032647E+02 -0.24887743599E+02 -0.99141577910E+01  0.96369932474E+02  0.92018928044E+02 0.  0.
         11    1    3    3    0    0 -0.37375877291E+02 -0.46993429501E+02 -0.11867385895E+02  0.61205992091E+02  0.51100000000E-03 0.  1.
         22    1    1    0    0    0  0.10099032647E+02  0.24887743599E+02  0.99141577910E+01  0.28630067526E+02  0.00000000000E+00 0.  1.
</event>
<event>
 5    1  0.1096978E-009  0.9118800E+02  0.7818608E-02  0.1130116E+00
         25   -1    0    0    0    0  0.00000000000E+00  0.00000000000E+00  0.99999998245E-14  0.12500000000E+03  0.12500000000E+03 0.  0.
        -11    1    3    3    0    0 -0.23622658587E+02 -0.63493255989E+01 -0.33546620945E+02  0.41517703589E+02  0.51100000000E-03 0. -1.
         23    2    1    0    0    0  0.61342380995E+01  0.28160118806E+02 -0.38117415758E+01  0.95928527006E+02  0.91417349291E+02 0.  0.
         11    1    3    3    0    0  0.29756896686E+02  0.34509444405E+02  0.29734879369E+02  0.54410823416E+02  0.51100000000E-03 0.  1.
         22    1    1    0    0    0 -0.61342380995E+01 -0.28160118806E+02  0.38117415758E+01  0.29071472994E+02  0.00000000000E+00 0.  1.
</event>
<event>
 5    1  0.1096978E-009  0.9118800E+02  0.7818608E-02  0.1130116E+00
         25   -1    0    0    0    0  0.00000000000E+00  0.00000000000E+00  0.99999998245E-14  0.12500000000E+03  0.12500000000E+03 0.  0.
        -11    1    3    3    0    0  0.13485160090E+02 -0.30532495311E+02 -0.17388827868E+01  0.33423143571E+02  0.51100000000E-03 0.  1.
         23    2    1    0    0    0  0.37355916701E+01  0.29757726943E+02  0.38993652538E+01  0.94756289789E+02  0.89800180664E+02 0.  0.
         11    1    3    3    0    0 -0.97495684202E+01  0.60290222254E+02  0.56382480406E+01  0.61333146218E+02  0.51100000000E-03 0. -1.
         22    1    1    0    0    0 -0.37355916701E+01 -0.29757726943E+02 -0.38993652538E+01  0.30243710211E+02  0.00000000000E+00 0. -1.
</event>
<event>
 5    1  0.1096978E-009  0.9118800E+02  0.7818608E-02  0.1130116E+00
         25   -1    0    0    0    0  0.00000000000E+00  0.00000000000E+00  0.99999998245E-14  0.12500000000E+03  0.12500000000E+03 0.  0.
        -11    1    3    3    0    0 -0.17076706819E+02  0.30305969534E+02 -0.42681822271E+02  0.55061816696E+02  0.51100000000E-03 0.  1.
         23    2    1    0    0    0  0.30506529034E+01  0.32591340428E+02 -0.15990948402E+02  0.88569073786E+02  0.80729600807E+02 0.  0.
         11    1    3    3    0    0  0.20127359723E+02  0.22853708937E+01  0.26690873869E+02  0.33507257090E+02  0.51100000000E-03 0. -1.
         22    1    1    0    0    0 -0.30506529034E+01 -0.32591340428E+02  0.15990948402E+02  0.36430926214E+02  0.00000000000E+00 0.  1.
</event>
<event>
 5    1  0.1096978E-009  0.9118800E+02  0.7818608E-02  0.1130116E+00
         25   -1    0    0    0    0  0.00000000000E+00  0.00000000000E+00  0.99999998245E-14  0.12500000000E+03  0.12500000000E+03 0.  0.
        -11    1    3    3    0    0  0.52166499640E+02  0.48863898591E+00  0.90467503687E+00  0.52176631646E+02  0.51100000000E-03 0.  1.
         23    2    1    0    0    0  0.18724588125E+02  0.18082672194E+02 -0.16916103396E+02  0.93955712470E+02  0.88678791814E+02 0.  0.
         11    1    3    3    0    0 -0.33441911515E+02  0.17594033208E+02 -0.17820778433E+02  0.41779080824E+02  0.51100000000E-03 0. -1.
         22    1    1    0    0    0 -0.18724588125E+02 -0.18082672194E+02  0.16916103396E+02  0.31044287530E+02  0.00000000000E+00 0.  1.
</event>
<event>
 5    1  0.1096978E-009  0.9118800E+02  0.7818608E-02  0.1130116E+00
         25   -1    0    0    0    0  0.00000000000E+00  0.00000000000E+00  0.99999998245E-14  0.12500000000E+03  0.12500000000E+03 0.  0.
        -11    1    3    3    0    0 -0.37360619658E+02 -0.35084993706E+02 -0.30488601312E+02  0.59634951956E+02  0.51100000000E-03 0.  1.
         23    2    1    0    0    0 -0.64187449347E+01 -0.24131888270E+02 -0.14121523948E+02  0.96312620255E+02  0.91941041237E+02 0.  0.
         11    1    3    3    0    0  0.30941874724E+02  0.10953105436E+02  0.16367077364E+02  0.36677668299E+02  0.51100000000E-03 0. -1.
         22    1    1    0    0    0  0.64187449347E+01  0.24131888270E+02  0.14121523948E+02  0.28687379745E+02  0.00000000000E+00 0.  1.
</event>
<event>
 5    1  0.1096978E-009  0.9118800E+02  0.7818608E-02  0.1130116E+00
         25   -1    0    0    0    0  0.00000000000E+00  0.00000000000E+00  0.99999998245E-14  0.12500000000E+03  0.12500000000E+03 0.  0.
        -11    1    3    3    0    0  0.23194983805E+02 -0.59111785197E+01  0.30361674447E+02  0.38662392330E+02  0.51100000000E-03 0. -1.
         23    2    1    0    0    0  0.12845388086E+01 -0.19055401883E+02 -0.21357449493E+02  0.96348664434E+02  0.91990032658E+02 0.  0.
         11    1    3    3    0    0 -0.21910444996E+02 -0.13144223363E+02 -0.51719123940E+02  0.57686272103E+02  0.51100000000E-03 0.  1.
         22    1    1    0    0    0 -0.12845388086E+01  0.19055401883E+02  0.21357449493E+02  0.28651335566E+02  0.00000000000E+00 0.  1.
</event>
<event>
 5    1  0.1096978E-009  0.9118800E+02  0.7818608E-02  0.1130116E+00
         25   -1    0    0    0    0  0.00000000000E+00  0.00000000000E+00  0.99999998245E-14  0.12500000000E+03  0.12500000000E+03 0.  0.
        -11    1    3    3    0    0  0.25399465797E+02  0.28699600734E+02  0.31056049699E+01  0.38450549119E+02  0.51100000000E-03 0. -1.
         23    2    1    0    0    0  0.86790950996E+01 -0.26980190283E+02  0.17941741356E+01  0.96601471512E+02  0.92332918712E+02 0.  0.
         11    1    3    3    0    0 -0.16720370698E+02 -0.55679791017E+02 -0.13114308343E+01  0.58150922392E+02  0.51100000000E-03 0.  1.
         22    1    1    0    0    0 -0.86790950996E+01  0.26980190283E+02 -0.17941741356E+01  0.28398528488E+02  0.00000000000E+00 0.  1.
</event>
<event>
 5    1  0.1096978E-009  0.9118800E+02  0.7818608E-02  0.1130116E+00
         25   -1    0    0    0    0  0.00000000000E+00  0.00000000000E+00  0.99999998245E-14  0.12500000000E+03  0.12500000000E+03 0.  0.
        -11    1    3    3    0    0  0.59069837013E+01 -0.30097581053E+02 -0.18119204063E+02  0.35623902058E+02  0.51100000000E-03 0. -1.
         23    2    1    0    0    0  0.76751773075E+01  0.11146754399E+02  0.25779305690E+02  0.95884178147E+02  0.91356688517E+02 0.  0.
         11    1    3    3    0    0  0.17681936062E+01  0.41244335452E+02  0.43898509753E+02  0.60260276089E+02  0.51100000000E-03 0.  1.
         22    1    1    0    0    0 -0.76751773075E+01 -0.11146754399E+02 -0.25779305690E+02  0.29115821853E+02  0.00000000000E+00 0.  1.
</event>
<event>
 5    1  0.1096978E-009  0.9118800E+02  0.7818608E-02  0.1130116E+00
         25   -1    0    0    0    0  0.00000000000E+00  0.00000000000E+00  0.99999998245E-14  0.12500000000E+03  0.12500000000E+03 0.  0.
        -11    1    3    3    0    0 -0.90628292467E+01 -0.32398543320E+01 -0.45470991892E+02  0.46478410406E+02  0.51100000000E-03 0. -1.
         23    2    1    0    0    0  0.21548804604E+02  0.15736411699E+02 -0.11652187402E+02  0.95883696934E+02  0.91356030088E+02 0.  0.
         11    1    3    3    0    0  0.30611633850E+02  0.18976266031E+02  0.33818804490E+02  0.49405286527E+02  0.51100000000E-03 0.  1.
         22    1    1    0    0    0 -0.21548804604E+02 -0.15736411699E+02  0.11652187402E+02  0.29116303066E+02  0.00000000000E+00 0. -1.
</event>
<event>
 5    1  0.1096978E-009  0.9118800E+02  0.7818608E-02  0.1130116E+00
         25   -1    0    0    0    0  0.00000000000E+00  0.00000000000E+00  0.99999998245E-14  0.12500000000E+03  0.12500000000E+03 0.  0.
        -11    1    3    3    0    0  0.53123210189E+02 -0.99442432154E+01  0.13497941165E+02  0.55705994739E+02  0.51100000000E-03 0. -1.
         23    2    1    0    0    0  0.16485351847E+02 -0.22706918787E+02  0.11856267426E+02  0.94537858519E+02  0.89495612349E+02 0.  0.
         11    1    3    3    0    0 -0.36637858342E+02 -0.12762675572E+02 -0.16416737393E+01  0.38831863780E+02  0.51100000000E-03 0.  1.
         22    1    1    0    0    0 -0.16485351847E+02  0.22706918787E+02 -0.11856267426E+02  0.30462141481E+02  0.00000000000E+00 0. -1.
</event>
<event>
 5    1  0.1096978E-009  0.9118800E+02  0.7818608E-02  0.1130116E+00
         25   -1    0    0    0    0  0.00000000000E+00  0.00000000000E+00  0.99999998245E-14  0.12500000000E+03  0.12500000000E+03 0.  0.
        -11    1    3    3    0    0 -0.47183077153E+02 -0.27416030410E+01 -0.40487461457E+02  0.62233380853E+02  0.51100000000E-03 0. -1.
         23    2    1    0    0    0 -0.20238305308E+02 -0.23921847648E+00 -0.22548654328E+02  0.94700032356E+02  0.89721837303E+02 0.  0.
         11    1    3    3    0    0  0.26944771846E+02  0.25023845646E+01  0.17938807129E+02  0.32466651503E+02  0.51100000000E-03 0.  1.
         22    1    1    0    0    0  0.20238305308E+02  0.23921847648E+00  0.22548654328E+02  0.30299967644E+02  0.00000000000E+00 0. -1.
</event>
<event>
 5    1  0.1096978E-009  0.9118800E+02  0.7818608E-02  0.1130116E+00
         25   -1    0    0    0    0  0.00000000000E+00  0.00000000000E+00  0.99999998245E-14  0.12500000000E+03  0.12500000000E+03 0.  0.
        -11    1    3    3    0    0 -0.36282083981E+02 -0.43071187489E+02  0.45827640553E+01  0.56502376378E+02  0.51100000000E-03 0.  1.
         23    2    1    0    0    0 -0.20302979036E+02 -0.13428312773E+02 -0.15906995228E+02  0.95921433342E+02  0.91407649218E+02 0.  0.
         11    1    3    3    0    0  0.15979104945E+02  0.29642874715E+02 -0.20489759283E+02  0.39419056964E+02  0.51100000000E-03 0. -1.
         22    1    1    0    0    0  0.20302979036E+02  0.13428312773E+02  0.15906995228E+02  0.29078566658E+02  0.00000000000E+00 0.  1.
</event>
<event>
 5    1  0.1096978E-009  0.9118800E+02  0.7818608E-02  0.1130116E+00
         25   -1    0    0    0    0  0.00000000000E+00  0.00000000000E+00  0.99999998245E-14  0.12500000000E+03  0.12500000000E+03 0.  0.
        -11    1    3    3    0    0 -0.16825062231E+02  0.57147655389E+02  0.33639736868E+01  0.59667860317E+02  0.51100000000E-03 0.  1.
         23    2    1    0    0    0 -0.19494619164E+02  0.21720663764E+02 -0.26232971049E+01  0.95696261358E+02  0.91099206031E+02 0.  0.
         11    1    3    3    0    0 -0.26695569327E+01 -0.35426991625E+02 -0.59872707917E+01  0.36028401041E+02  0.51100000000E-03 0. -1.
         22    1    1    0    0    0  0.19494619164E+02 -0.21720663764E+02  0.26232971049E+01  0.29303738642E+02  0.00000000000E+00 0.  1.
</event>
<event>
 5    1  0.1096978E-009  0.9118800E+02  0.7818608E-02  0.1130116E+00
         25   -1    0    0    0    0  0.00000000000E+00  0.00000000000E+00  0.99999998245E-14  0.12500000000E+03  0.12500000000E+03 0.  0.
        -11    1    3    3    0    0 -0.16936482001E+02 -0.40427694613E+02 -0.25001313818E+00  0.43832698082E+02  0.51100000000E-03 0. -1.
         23    2    1    0    0    0  0.21869774949E+02 -0.18232693995E+02  0.17100150489E+02  0.91786548909E+02  0.85566566059E+02 0.  0.
         11    1    3    3    0    0  0.38806256950E+02  0.22195000618E+02  0.17350163628E+02  0.47953850827E+02  0.51100000000E-03 0.  1.
         22    1    1    0    0    0 -0.21869774949E+02  0.18232693995E+02 -0.17100150489E+02  0.33213451091E+02  0.00000000000E+00 0.  1.
</event>
<event>
 5    1  0.1096978E-009  0.9118800E+02  0.7818608E-02  0.1130116E+00
         25   -1    0    0    0    0  0.00000000000E+00  0.00000000000E+00  0.99999998245E-14  0.12500000000E+03  0.12500000000E+03 0.  0.
        -11    1    3    3    0    0  0.81184925126E+01  0.67295322523E+01  0.47327954637E+02  0.48488470954E+02  0.51100000000E-03 0.  1.
         23    2    1    0    0    0  0.17278833403E+02  0.30232977272E+02  0.25622165150E+02  0.81767068738E+02  0.69402933544E+02 0.  0.
         11    1    3    3    0    0  0.91603408902E+01  0.23503445020E+02 -0.21705789487E+02  0.33278597785E+02  0.51100000000E-03 0. -1.
         22    1    1    0    0    0 -0.17278833403E+02 -0.30232977272E+02 -0.25622165150E+02  0.43232931262E+02  0.00000000000E+00 0.  1.
</event>
<event>
 5    1  0.1096978E-009  0.9118800E+02  0.7818608E-02  0.1130116E+00
         25   -1    0    0    0    0  0.00000000000E+00  0.00000000000E+00  0.99999998245E-14  0.12500000000E+03  0.12500000000E+03 0.  0.
        -11    1    3    3    0    0  0.45544854492E+02  0.67229623812E+01  0.19961098430E+02  0.50179452415E+02  0.51100000000E-03 0. -1.
         23    2    1    0    0    0  0.11149918715E+01  0.17674595479E+02  0.22920528482E+02  0.96034759485E+02  0.91562491617E+02 0.  0.
         11    1    3    3    0    0 -0.44429862620E+02  0.10951633098E+02  0.29594300524E+01  0.45855307070E+02  0.51100000000E-03 0.  1.
         22    1    1    0    0    0 -0.11149918715E+01 -0.17674595479E+02 -0.22920528482E+02  0.28965240515E+02  0.00000000000E+00 0. -1.
</event>
<event>
 5    1  0.1096978E-009  0.9118800E+02  0.7818608E-02  0.1130116E+00
         25   -1    0    0    0    0  0.00000000000E+00  0.00000000000E+00  0.99999998245E-14  0.12500000000E+03  0.12500000000E+03 0.  0.
        -11    1    3    3    0    0  0.35438767244E+02 -0.21643712700E+01  0.39442096582E+02  0.53068537852E+02  0.51100000000E-03 0. -1.
         23    2    1    0    0    0  0.90185532985E+00 -0.18545232369E+02  0.24840640762E+02  0.93987157174E+02  0.88723104621E+02 0.  0.
         11    1    3    3    0    0 -0.34536911914E+02 -0.16380861099E+02 -0.14601455820E+02  0.40918619322E+02  0.51100000000E-03 0.  1.
         22    1    1    0    0    0 -0.90185532985E+00  0.18545232369E+02 -0.24840640762E+02  0.31012842826E+02  0.00000000000E+00 0. -1.
</event>
<event>
 5    1  0.1096978E-009  0.9118800E+02  0.7818608E-02  0.1130116E+00
         25   -1    0    0    0    0  0.00000000000E+00  0.00000000000E+00  0.99999998245E-14  0.12500000000E+03  0.12500000000E+03 0.  0.
        -11    1    3    3    0    0 -0.59004154725E+02  0.72533953816E-01  0.86963723391E+01  0.59641616579E+02  0.51100000000E-03 0.  1.
         23    2    1    0    0    0 -0.24816908020E+02 -0.78819493503E+01  0.14465750305E+02  0.95213056868E+02  0.90433755960E+02 0.  0.
         11    1    3    3    0    0  0.34187246705E+02 -0.79544833041E+01  0.57693779661E+01  0.35571440290E+02  0.51100000000E-03 0. -1.
         22    1    1    0    0    0  0.24816908020E+02  0.78819493503E+01 -0.14465750305E+02  0.29786943132E+02  0.00000000000E+00 0.  1.
</event>
<event>
 5    1  0.1096978E-009  0.9118800E+02  0.7818608E-02  0.1130116E+00
         25   -1    0    0    0    0  0.00000000000E+00  0.00000000000E+00  0.99999998245E-14  0.12500000000E+03  0.12500000000E+03 0.  0.
        -11    1    3    3    0    0 -0.32964168085E+02  0.29398665548E+02 -0.58393140656E+01  0.44553512797E+02  0.51100000000E-03 0.  1.
         23    2    1    0    0    0 -0.20652609597E+02  0.23032232011E+01 -0.33756943979E+02  0.85359535988E+02  0.75596851766E+02 0.  0.
         11    1    3    3    0    0  0.12311558488E+02 -0.27095442347E+02 -0.27917629914E+02  0.40806023191E+02  0.51100000000E-03 0. -1.
         22    1    1    0    0    0  0.20652609597E+02 -0.23032232011E+01  0.33756943979E+02  0.39640464012E+02  0.00000000000E+00 0. -1.
</event>
<event>
 5    1  0.1096978E-009  0.9118800E+02  0.7818608E-02  0.1130116E+00
         25   -1    0    0    0    0  0.00000000000E+00  0.00000000000E+00  0.99999998245E-14  0.12500000000E+03  0.12500000000E+03 0.  0.
        -11    1    3    3    0    0  0.35987660137E+01 -0.41017515509E+02 -0.65925128400E+01  0.41699507445E+02  0.51100000000E-03 0.  1.
         23    2    1    0    0    0 -0.28144479788E+02  0.34811914598E+01 -0.31144953401E+01  0.96470532467E+02  0.92155483379E+02 0.  0.
         11    1    3    3    0    0 -0.31743245801E+02  0.44498706969E+02  0.34780174999E+01  0.54771025022E+02  0.51100000000E-03 0. -1.
         22    1    1    0    0    0  0.28144479788E+02 -0.34811914598E+01  0.31144953401E+01  0.28529467533E+02  0.00000000000E+00 0. -1.
</event>
<event>
 5    1  0.1096978E-009  0.9118800E+02  0.7818608E-02  0.1130116E+00
         25   -1    0    0    0    0  0.00000000000E+00  0.00000000000E+00  0.99999998245E-14  0.12500000000E+03  0.12500000000E+03 0.  0.
        -11    1    3    3    0    0  0.48421712262E+02 -0.23599004744E+02  0.93558635619E+01  0.54672730192E+02  0.51100000000E-03 0.  1.
         23    2    1    0    0    0  0.24643208252E+02  0.68539498825E+01 -0.95623037398E+01  0.97692455351E+02  0.93798261379E+02 0.  0.
         11    1    3    3    0    0 -0.23778504010E+02  0.30452954627E+02 -0.18918167302E+02  0.43019725159E+02  0.51100000000E-03 0. -1.
         22    1    1    0    0    0 -0.24643208252E+02 -0.68539498825E+01  0.95623037398E+01  0.27307544649E+02  0.00000000000E+00 0.  1.
</event>
<event>
 5    1  0.1096978E-009  0.9118800E+02  0.7818608E-02  0.1130116E+00
         25   -1    0    0    0    0  0.00000000000E+00  0.00000000000E+00  0.99999998245E-14  0.12500000000E+03  0.12500000000E+03 0.  0.
        -11    1    3    3    0    0 -0.27796434907E+02 -0.39825318981E+02  0.63972810974E+01  0.48985947283E+02  0.51100000000E-03 0. -1.
         23    2    1    0    0    0  0.14351004389E+02 -0.19909485182E+02  0.14781441029E+02  0.96349870400E+02  0.91991671363E+02 0.  0.
         11    1    3    3    0    0  0.42147439295E+02  0.19915833799E+02  0.83841599315E+01  0.47363923118E+02  0.51100000000E-03 0.  1.
         22    1    1    0    0    0 -0.14351004389E+02  0.19909485182E+02 -0.14781441029E+02  0.28650129600E+02  0.00000000000E+00 0. -1.
</event>
<event>
 5    1  0.1096978E-009  0.9118800E+02  0.7818608E-02  0.1130116E+00
         25   -1    0    0    0    0  0.00000000000E+00  0.00000000000E+00  0.99999998245E-14  0.12500000000E+03  0.12500000000E+03 0.  0.
        -11    1    3    3    0    0 -0.50455565489E+02  0.33780920193E+02 -0.13912142933E+02  0.62293357424E+02  0.51100000000E-03 0. -1.
         23    2    1    0    0    0 -0.23549650757E+02  0.17584564676E+02 -0.33861399311E+01  0.95415056038E+02  0.90712535018E+02 0.  0.
         11    1    3    3    0    0  0.26905914732E+02 -0.16196355518E+02  0.10526003002E+02  0.33121698614E+02  0.51100000000E-03 0.  1.
         22    1    1    0    0    0  0.23549650757E+02 -0.17584564676E+02  0.33861399311E+01  0.29584943962E+02  0.00000000000E+00 0. -1.
</event>
<event>
 5    1  0.1096978E-009  0.9118800E+02  0.7818608E-02  0.1130116E+00
         25   -1    0    0    0    0  0.00000000000E+00  0.00000000000E+00  0.99999998245E-14  0.12500000000E+03  0.12500000000E+03 0.  0.
        -11    1    3    3    0    0  0.13343843977E+02 -0.60728568990E+01  0.53255322920E+02  0.55236466058E+02  0.51100000000E-03 0. -1.
         23    2    1    0    0    0 -0.60403240500E+00  0.17464329972E+02  0.24253499865E+02  0.95106858107E+02  0.90286845813E+02 0.  0.
         11    1    3    3    0    0 -0.13947876382E+02  0.23537186871E+02 -0.29001823055E+02  0.39870392049E+02  0.51100000000E-03 0.  1.
         22    1    1    0    0    0  0.60403240500E+00 -0.17464329972E+02 -0.24253499865E+02  0.29893141893E+02  0.00000000000E+00 0. -1.
</event>
<event>
 5    1  0.1096978E-009  0.9118800E+02  0.7818608E-02  0.1130116E+00
         25   -1    0    0    0    0  0.00000000000E+00  0.00000000000E+00  0.99999998245E-14  0.12500000000E+03  0.12500000000E+03 0.  0.
        -11    1    3    3    0    0  0.13617009440E+02 -0.18670342255E+02  0.46449532065E+02  0.51880281951E+02  0.51100000000E-03 0.  1.
         23    2    1    0    0    0  0.42947641583E+01 -0.27696185045E+02  0.34904010164E+01  0.96756300446E+02  0.92542288233E+02 0.  0.
         11    1    3    3    0    0 -0.93222452814E+01 -0.90258427909E+01 -0.42959131049E+02  0.44876018495E+02  0.51100000000E-03 0. -1.
         22    1    1    0    0    0 -0.42947641583E+01  0.27696185045E+02 -0.34904010164E+01  0.28243699554E+02  0.00000000000E+00 0.  1.
</event>
<event>
 5    1  0.1096978E-009  0.9118800E+02  0.7818608E-02  0.1130116E+00
         25   -1    0    0    0    0  0.00000000000E+00  0.00000000000E+00  0.99999998245E-14  0.12500000000E+03  0.12500000000E+03 0.  0.
        -11    1    3    3    0    0  0.45604075897E+02 -0.18354335167E+02  0.17581618886E+02  0.52208492420E+02  0.51100000000E-03 0.  1.
         23    2    1    0    0    0  0.90308005909E+01  0.96009035592E+00  0.28584877795E+02  0.95007127991E+02  0.90148666090E+02 0.  0.
         11    1    3    3    0    0 -0.36573275306E+02  0.19314425522E+02  0.11003258909E+02  0.42798635571E+02  0.51100000000E-03 0. -1.
         22    1    1    0    0    0 -0.90308005909E+01 -0.96009035592E+00 -0.28584877795E+02  0.29992872009E+02  0.00000000000E+00 0.  1.
</event>
<event>
 5    1  0.1096978E-009  0.9118800E+02  0.7818608E-02  0.1130116E+00
         25   -1    0    0    0    0  0.00000000000E+00  0.00000000000E+00  0.99999998245E-14  0.12500000000E+03  0.12500000000E+03 0.  0.
        -11    1    3    3    0    0  0.24450194834E+02  0.20251476262E+02  0.12026203593E+02  0.33949431384E+02  0.51100000000E-03 0.  1.
         23    2    1    0    0    0 -0.26165914239E+01 -0.18142775878E+02 -0.25165937959E+02  0.93865914168E+02  0.88552123306E+02 0.  0.
         11    1    3    3    0    0 -0.27066786258E+02 -0.38394252139E+02 -0.37192141552E+02  0.59916482784E+02  0.51100000000E-03 0. -1.
         22    1    1    0    0    0  0.26165914239E+01  0.18142775878E+02  0.25165937959E+02  0.31134085832E+02  0.00000000000E+00 0. -1.
</event>
<event>
 5    1  0.1096978E-009  0.9118800E+02  0.7818608E-02  0.1130116E+00
         25   -1    0    0    0    0  0.00000000000E+00  0.00000000000E+00  0.99999998245E-14  0.12500000000E+03  0.12500000000E+03 0.  0.
        -11    1    3    3    0    0 -0.88558767162E+01 -0.58928229716E+02 -0.32412718613E+01  0.59678041635E+02  0.51100000000E-03 0.  1.
         23    2    1    0    0    0  0.84838504247E+01 -0.28948691156E+02  0.22774620703E+01  0.94747904682E+02  0.89788508009E+02 0.  0.
         11    1    3    3    0    0  0.17339727141E+02  0.29979538560E+02  0.55187339316E+01  0.35069863046E+02  0.51100000000E-03 0. -1.
         22    1    1    0    0    0 -0.84838504247E+01  0.28948691156E+02 -0.22774620703E+01  0.30252095318E+02  0.00000000000E+00 0.  1.
</event>
<event>
 5    1  0.1096978E-009  0.9118800E+02  0.7818608E-02  0.1130116E+00
         25   -1    0    0    0    0  0.00000000000E+00  0.00000000000E+00  0.99999998245E-14  0.12500000000E+03  0.12500000000E+03 0.  0.
        -11    1    3    3    0    0  0.48506649104E+01  0.38305478244E+02  0.71532108287E+01  0.39268397459E+02  0.51100000000E-03 0.  1.
         23    2    1    0    0    0 -0.27044316010E+02 -0.86637264349E+01  0.55414712115E+01  0.96066229292E+02  0.91605443741E+02 0.  0.
         11    1    3    3    0    0 -0.31894980921E+02 -0.46969204679E+02 -0.16117396172E+01  0.56797831833E+02  0.51100000000E-03 0. -1.
         22    1    1    0    0    0  0.27044316010E+02  0.86637264349E+01 -0.55414712115E+01  0.28933770708E+02  0.00000000000E+00 0. -1.
</event>
<event>
 5    1  0.1096978E-009  0.9118800E+02  0.7818608E-02  0.1130116E+00
         25   -1    0    0    0    0  0.00000000000E+00  0.00000000000E+00  0.99999998245E-14  0.12500000000E+03  0.12500000000E+03 0.  0.
        -11    1    3    3    0    0  0.44950817630E+01  0.34342375380E+02  0.15146465530E+02  0.37802379887E+02  0.51100000000E-03 0.  1.
         23    2    1    0    0    0  0.26897390209E+02 -0.15152747143E+02  0.28699642189E+00  0.94126747613E+02  0.88919552986E+02 0.  0.
         11    1    3    3    0    0  0.22402308446E+02 -0.49495122523E+02 -0.14859469108E+02  0.56324367726E+02  0.51100000000E-03 0. -1.
         22    1    1    0    0    0 -0.26897390209E+02  0.15152747143E+02 -0.28699642189E+00  0.30873252387E+02  0.00000000000E+00 0. -1.
</event>
<event>
 5    1  0.1096978E-009  0.9118800E+02  0.7818608E-02  0.1130116E+00
         25   -1    0    0    0    0  0.00000000000E+00  0.00000000000E+00  0.99999998245E-14  0.12500000000E+03  0.12500000000E+03 0.  0.
        -11    1    3    3    0    0 -0.51919971281E+02  0.20503570492E+02  0.18305881361E+02  0.58746788111E+02  0.51100000000E-03 0. -1.
         23    2    1    0    0    0 -0.16971330583E+02  0.22608742690E+02  0.45390445666E+01  0.96368125571E+02  0.92016473485E+02 0.  0.
         11    1    3    3    0    0  0.34948640698E+02  0.21051721975E+01 -0.13766836795E+02  0.37621337459E+02  0.51100000000E-03 0.  1.
         22    1    1    0    0    0  0.16971330583E+02 -0.22608742690E+02 -0.45390445666E+01  0.28631874429E+02  0.00000000000E+00 0. -1.
</event>
<event>
 5    1  0.1096978E-009  0.9118800E+02  0.7818608E-02  0.1130116E+00
         25   -1    0    0    0    0  0.00000000000E+00  0.00000000000E+00  0.99999998245E-14  0.12500000000E+03  0.12500000000E+03 0.  0.
        -11    1    3    3    0    0  0.95010094808E+01  0.18522750512E+02  0.46182426545E+02  0.50657457393E+02  0.51100000000E-03 0. -1.
         23    2    1    0    0    0 -0.10302209693E+02 -0.15167657053E+02  0.20875365303E+02  0.97215575918E+02  0.93160581682E+02 0.  0.
         11    1    3    3    0    0 -0.19803219173E+02 -0.33690407566E+02 -0.25307061242E+02  0.46558118524E+02  0.51100000000E-03 0.  1.
         22    1    1    0    0    0  0.10302209693E+02  0.15167657053E+02 -0.20875365303E+02  0.27784424082E+02  0.00000000000E+00 0. -1.
</event>
<event>
 5    1  0.1096978E-009  0.9118800E+02  0.7818608E-02  0.1130116E+00
         25   -1    0    0    0    0  0.00000000000E+00  0.00000000000E+00  0.99999998245E-14  0.12500000000E+03  0.12500000000E+03 0.  0.
        -11    1    3    3    0    0  0.29136190470E+01 -0.54566581569E+02 -0.69915726818E+01  0.55089772998E+02  0.51100000000E-03 0.  1.
         23    2    1    0    0    0  0.39954915660E+01 -0.14118563564E+02 -0.22261594835E+02  0.98337734632E+02  0.94654284943E+02 0.  0.
         11    1    3    3    0    0  0.10818725190E+01  0.40448018006E+02 -0.15270022153E+02  0.43247961635E+02  0.51100000000E-03 0. -1.
         22    1    1    0    0    0 -0.39954915660E+01  0.14118563564E+02  0.22261594835E+02  0.26662265368E+02  0.00000000000E+00 0.  1.
</event>
<event>
 5    1  0.1096978E-009  0.9118800E+02  0.7818608E-02  0.1130116E+00
         25   -1    0    0    0    0  0.00000000000E+00  0.00000000000E+00  0.99999998245E-14  0.12500000000E+03  0.12500000000E+03 0.  0.
        -11    1    3    3    0    0 -0.17141324984E+01 -0.39373926073E+02 -0.22646480717E+02  0.45454454058E+02  0.51100000000E-03 0.  1.
         23    2    1    0    0    0 -0.26278471490E+02 -0.11092927797E+02  0.96228666633E+01  0.94896666733E+02  0.89995370343E+02 0.  0.
         11    1    3    3    0    0 -0.24564338992E+02  0.28280998275E+02  0.32269347380E+02  0.49442212675E+02  0.51100000000E-03 0. -1.
         22    1    1    0    0    0  0.26278471490E+02  0.11092927797E+02 -0.96228666633E+01  0.30103333267E+02  0.00000000000E+00 0. -1.
</event>
<event>
 5    1  0.1096978E-009  0.9118800E+02  0.7818608E-02  0.1130116E+00
         25   -1    0    0    0    0  0.00000000000E+00  0.00000000000E+00  0.99999998245E-14  0.12500000000E+03  0.12500000000E+03 0.  0.
        -11    1    3    3    0    0  0.65273990073E+01  0.15383595115E+02 -0.38696509554E+02  0.42150703296E+02  0.51100000000E-03 0. -1.
         23    2    1    0    0    0 -0.27381632397E+02 -0.79065286330E+01 -0.35080445879E+01  0.96284614497E+02  0.91902957647E+02 0.  0.
         11    1    3    3    0    0 -0.33909031404E+02 -0.23290123748E+02  0.35188464966E+02  0.54133911201E+02  0.51100000000E-03 0.  1.
         22    1    1    0    0    0  0.27381632397E+02  0.79065286330E+01  0.35080445879E+01  0.28715385503E+02  0.00000000000E+00 0.  1.
</event>
<event>
 5    1  0.1096978E-009  0.9118800E+02  0.7818608E-02  0.1130116E+00
         25   -1    0    0    0    0  0.00000000000E+00  0.00000000000E+00  0.99999998245E-14  0.12500000000E+03  0.12500000000E+03 0.  0.
        -11    1    3    3    0    0  0.38044709335E+02  0.88507403987E+01  0.25276043505E+02  0.46525411223E+02  0.51100000000E-03 0. -1.
         23    2    1    0    0    0 -0.65649578339E+01  0.25473616947E+02  0.12832582903E+02  0.95730920485E+02  0.91146750469E+02 0.  0.
         11    1    3    3    0    0 -0.44609667168E+02  0.16622876548E+02 -0.12443460603E+02  0.49205509261E+02  0.51100000000E-03 0.  1.
         22    1    1    0    0    0  0.65649578339E+01 -0.25473616947E+02 -0.12832582903E+02  0.29269079515E+02  0.00000000000E+00 0. -1.
</event>
<event>
 5    1  0.1096978E-009  0.9118800E+02  0.7818608E-02  0.1130116E+00
         25   -1    0    0    0    0  0.00000000000E+00  0.00000000000E+00  0.99999998245E-14  0.12500000000E+03  0.12500000000E+03 0.  0.
        -11    1    3    3    0    0  0.41748431012E+02  0.39815236626E+02  0.15352017438E+02  0.59698149043E+02  0.51100000000E-03 0. -1.
         23    2    1    0    0    0  0.24145746065E+02  0.72166337353E+01  0.12537338780E+02  0.96852500659E+02  0.92672138017E+02 0.  0.
         11    1    3    3    0    0 -0.17602684947E+02 -0.32598602890E+02 -0.28146786589E+01  0.37154351615E+02  0.51100000000E-03 0.  1.
         22    1    1    0    0    0 -0.24145746065E+02 -0.72166337353E+01 -0.12537338780E+02  0.28147499341E+02  0.00000000000E+00 0. -1.
</event>
<event>
 5    1  0.1096978E-009  0.9118800E+02  0.7818608E-02  0.1130116E+00
         25   -1    0    0    0    0  0.00000000000E+00  0.00000000000E+00  0.99999998245E-14  0.12500000000E+03  0.12500000000E+03 0.  0.
        -11    1    3    3    0    0  0.35013070746E+02  0.29619578519E+02  0.12138552799E+02  0.47440267906E+02  0.51100000000E-03 0.  1.
         23    2    1    0    0    0 -0.93163755366E+01  0.23661200659E+02 -0.10400199555E+02  0.97526168441E+02  0.93576397186E+02 0.  0.
         11    1    3    3    0    0 -0.44329446282E+02 -0.59583778608E+01 -0.22538752354E+02  0.50085900535E+02  0.51100000000E-03 0. -1.
         22    1    1    0    0    0  0.93163755366E+01 -0.23661200659E+02  0.10400199555E+02  0.27473831559E+02  0.00000000000E+00 0.  1.
</event>
<event>
 5    1  0.1096978E-009  0.9118800E+02  0.7818608E-02  0.1130116E+00
         25   -1    0    0    0    0  0.00000000000E+00  0.00000000000E+00  0.99999998245E-14  0.12500000000E+03  0.12500000000E+03 0.  0.
        -11    1    3    3    0    0  0.32558639428E+02  0.42530274115E+02 -0.14344445183E+02  0.55449547568E+02  0.51100000000E-03 0. -1.
         23    2    1    0    0    0  0.17680173613E+02  0.66947135595E+01 -0.23022880033E+02  0.95209720820E+02  0.90429144665E+02 0.  0.
         11    1    3    3    0    0 -0.14878465815E+02 -0.35835560555E+02 -0.86784348503E+01  0.39760173252E+02  0.51100000000E-03 0.  1.
         22    1    1    0    0    0 -0.17680173613E+02 -0.66947135595E+01  0.23022880033E+02  0.29790279180E+02  0.00000000000E+00 0. -1.
</event>
<event>
 5    1  0.1096978E-009  0.9118800E+02  0.7818608E-02  0.1130116E+00
         25   -1    0    0    0    0  0.00000000000E+00  0.00000000000E+00  0.99999998245E-14  0.12500000000E+03  0.12500000000E+03 0.  0.
        -11    1    3    3    0    0 -0.42290394855E+02 -0.17037875934E+02 -0.79717992375E-01  0.45593563894E+02  0.51100000000E-03 0. -1.
         23    2    1    0    0    0  0.74243266117E+01 -0.27373752645E+02  0.30857908343E+01  0.96469927014E+02  0.92154662137E+02 0.  0.
         11    1    3    3    0    0  0.49714721467E+02 -0.10335876711E+02  0.31655088267E+01  0.50876363120E+02  0.51100000000E-03 0.  1.
         22    1    1    0    0    0 -0.74243266117E+01  0.27373752645E+02 -0.30857908343E+01  0.28530072986E+02  0.00000000000E+00 0. -1.
</event>
<event>
 5    1  0.1096978E-009  0.9118800E+02  0.7818608E-02  0.1130116E+00
         25   -1    0    0    0    0  0.00000000000E+00  0.00000000000E+00  0.99999998245E-14  0.12500000000E+03  0.12500000000E+03 0.  0.
        -11    1    3    3    0    0  0.88260100660E+01  0.20692919252E+02 -0.25525078266E+02  0.34023888397E+02  0.51100000000E-03 0.  1.
         23    2    1    0    0    0  0.15244483771E+02 -0.22217307394E+02  0.15650942885E+02  0.93839848421E+02  0.88515321302E+02 0.  0.
         11    1    3    3    0    0  0.64184737049E+01 -0.42910226646E+02  0.41176021151E+02  0.59815960024E+02  0.51100000000E-03 0. -1.
         22    1    1    0    0    0 -0.15244483771E+02  0.22217307394E+02 -0.15650942885E+02  0.31160151579E+02  0.00000000000E+00 0. -1.
</event>
<event>
 5    1  0.1096978E-009  0.9118800E+02  0.7818608E-02  0.1130116E+00
         25   -1    0    0    0    0  0.00000000000E+00  0.00000000000E+00  0.99999998245E-14  0.12500000000E+03  0.12500000000E+03 0.  0.
        -11    1    3    3    0    0  0.27098845699E+02  0.70998950776E+01  0.20120450867E+02  0.34490411590E+02  0.51100000000E-03 0.  1.
         23    2    1    0    0    0 -0.28044753899E+02 -0.90106098830E+01 -0.53143799004E+00  0.95538470202E+02  0.90882438075E+02 0.  0.
         11    1    3    3    0    0 -0.55143599597E+02 -0.16110504961E+02 -0.20651888857E+02  0.61048058612E+02  0.51100000000E-03 0. -1.
         22    1    1    0    0    0  0.28044753899E+02  0.90106098830E+01  0.53143799004E+00  0.29461529798E+02  0.00000000000E+00 0. -1.
</event>
<event>
 5    1  0.1096978E-009  0.9118800E+02  0.7818608E-02  0.1130116E+00
         25   -1    0    0    0    0  0.00000000000E+00  0.00000000000E+00  0.99999998245E-14  0.12500000000E+03  0.12500000000E+03 0.  0.
        -11    1    3    3    0    0  0.23526476772E+02  0.22733684281E+02 -0.12835493226E+02  0.35143497221E+02  0.51100000000E-03 0.  1.
         23    2    1    0    0    0 -0.37080167810E+01 -0.15785552126E+02  0.24716360312E+02  0.95439358744E+02  0.90746017467E+02 0.  0.
         11    1    3    3    0    0 -0.27234493553E+02 -0.38519236407E+02  0.37551853538E+02  0.60295861524E+02  0.51100000000E-03 0. -1.
         22    1    1    0    0    0  0.37080167810E+01  0.15785552126E+02 -0.24716360312E+02  0.29560641256E+02  0.00000000000E+00 0. -1.
</event>
<event>
 5    1  0.1096978E-009  0.9118800E+02  0.7818608E-02  0.1130116E+00
         25   -1    0    0    0    0  0.00000000000E+00  0.00000000000E+00  0.99999998245E-14  0.12500000000E+03  0.12500000000E+03 0.  0.
        -11    1    3    3    0    0 -0.19630898267E+02 -0.29183619328E+02  0.16887371574E+00  0.35172209519E+02  0.51100000000E-03 0.  1.
         23    2    1    0    0    0 -0.23650931259E+01  0.28992390557E+02 -0.14144895083E+01  0.95876930857E+02  0.91346771778E+02 0.  0.
         11    1    3    3    0    0  0.17265805141E+02  0.58176009886E+02 -0.15833632241E+01  0.60704721338E+02  0.51100000000E-03 0. -1.
         22    1    1    0    0    0  0.23650931259E+01 -0.28992390557E+02  0.14144895083E+01  0.29123069143E+02  0.00000000000E+00 0. -1.
</event>
<event>
 5    1  0.1096978E-009  0.9118800E+02  0.7818608E-02  0.1130116E+00
         25   -1    0    0    0    0  0.00000000000E+00  0.00000000000E+00  0.99999998245E-14  0.12500000000E+03  0.12500000000E+03 0.  0.
        -11    1    3    3    0    0 -0.42537642488E+02 -0.53135370167E+01  0.12627200384E+01  0.42886818094E+02  0.51100000000E-03 0.  1.
         23    2    1    0    0    0 -0.36009409946E+01  0.26384015882E+02  0.14320908237E+02  0.94764731143E+02  0.89811930086E+02 0.  0.
         11    1    3    3    0    0  0.38936701494E+02  0.31697552899E+02  0.13058188198E+02  0.51877913049E+02  0.51100000000E-03 0. -1.
         22    1    1    0    0    0  0.36009409946E+01 -0.26384015882E+02 -0.14320908237E+02  0.30235268857E+02  0.00000000000E+00 0. -1.
</event>
<event>
 5    1  0.1096978E-009  0.9118800E+02  0.7818608E-02  0.1130116E+00
         25   -1    0    0    0    0  0.00000000000E+00  0.00000000000E+00  0.99999998245E-14  0.12500000000E+03  0.12500000000E+03 0.  0.
        -11    1    3    3    0    0 -0.43120103435E+02 -0.82584817642E+01 -0.55965995011E+01  0.44259098133E+02  0.51100000000E-03 0. -1.
         23    2    1    0    0    0 -0.78331117543E+01  0.14779366079E+02  0.23993348289E+02  0.95751614342E+02  0.91175125915E+02 0.  0.
         11    1    3    3    0    0  0.35286991681E+02  0.23037847843E+02  0.29589947790E+02  0.51492516210E+02  0.51100000000E-03 0.  1.
         22    1    1    0    0    0  0.78331117543E+01 -0.14779366079E+02 -0.23993348289E+02  0.29248385658E+02  0.00000000000E+00 0. -1.
</event>
<event>
 5    1  0.1096978E-009  0.9118800E+02  0.7818608E-02  0.1130116E+00
         25   -1    0    0    0    0  0.00000000000E+00  0.00000000000E+00  0.99999998245E-14  0.12500000000E+03  0.12500000000E+03 0.  0.
        -11    1    3    3    0    0 -0.33695805959E+02 -0.69373419955E+01 -0.93860653902E+00  0.34415331405E+02  0.51100000000E-03 0. -1.
         23    2    1    0    0    0  0.22456903970E+02  0.34268461767E+01  0.19497447739E+02  0.95063295456E+02  0.90226514196E+02 0.  0.
         11    1    3    3    0    0  0.56152709929E+02  0.10364188172E+02  0.20436054278E+02  0.60647964051E+02  0.51100000000E-03 0.  1.
         22    1    1    0    0    0 -0.22456903970E+02 -0.34268461767E+01 -0.19497447739E+02  0.29936704544E+02  0.00000000000E+00 0.  1.
</event>
<event>
 5    1  0.1096978E-009  0.9118800E+02  0.7818608E-02  0.1130116E+00
         25   -1    0    0    0    0  0.00000000000E+00  0.00000000000E+00  0.99999998245E-14  0.12500000000E+03  0.12500000000E+03 0.  0.
        -11    1    3    3    0    0 -0.23979210725E+02  0.35645078958E+02 -0.66745714967E+01  0.43475557568E+02  0.51100000000E-03 0.  1.
         23    2    1    0    0    0 -0.12164756649E+01 -0.34178416109E+01 -0.30297336380E+02  0.94486231861E+02  0.89423475471E+02 0.  0.
         11    1    3    3    0    0  0.22762735060E+02 -0.39062920569E+02 -0.23622764883E+02  0.51010674293E+02  0.51100000000E-03 0. -1.
         22    1    1    0    0    0  0.12164756649E+01  0.34178416109E+01  0.30297336380E+02  0.30513768139E+02  0.00000000000E+00 0. -1.
</event>
<event>
 5    1  0.1096978E-009  0.9118800E+02  0.7818608E-02  0.1130116E+00
         25   -1    0    0    0    0  0.00000000000E+00  0.00000000000E+00  0.99999998245E-14  0.12500000000E+03  0.12500000000E+03 0.  0.
        -11    1    3    3    0    0  0.26159126296E+02 -0.35402216142E+02 -0.39861618283E+01  0.44198487335E+02  0.51100000000E-03 0. -1.
         23    2    1    0    0    0  0.13931892144E+02  0.28462510816E+01  0.26708767574E+02  0.94741827067E+02  0.89780046596E+02 0.  0.
         11    1    3    3    0    0 -0.12227234151E+02  0.38248467224E+02  0.30694929402E+02  0.50543339732E+02  0.51100000000E-03 0.  1.
         22    1    1    0    0    0 -0.13931892144E+02 -0.28462510816E+01 -0.26708767574E+02  0.30258172933E+02  0.00000000000E+00 0.  1.
</event>
<event>
 5    1  0.1096978E-009  0.9118800E+02  0.7818608E-02  0.1130116E+00
         25   -1    0    0    0    0  0.00000000000E+00  0.00000000000E+00  0.99999998245E-14  0.12500000000E+03  0.12500000000E+03 0.  0.
        -11    1    3    3    0    0  0.15248990394E+02 -0.32722860766E+02  0.78838163462E+01  0.36952292015E+02  0.51100000000E-03 0.  1.
         23    2    1    0    0    0 -0.29864419060E+02 -0.13648857760E+00 -0.65075569307E+01  0.94434489173E+02  0.89351118030E+02 0.  0.
         11    1    3    3    0    0 -0.45113409454E+02  0.32586372188E+02 -0.14391373277E+02  0.57482197157E+02  0.51100000000E-03 0. -1.
         22    1    1    0    0    0  0.29864419060E+02  0.13648857760E+00  0.65075569307E+01  0.30565510827E+02  0.00000000000E+00 0. -1.
</event>
<event>
 5    1  0.1096978E-009  0.9118800E+02  0.7818608E-02  0.1130116E+00
         25   -1    0    0    0    0  0.00000000000E+00  0.00000000000E+00  0.99999998245E-14  0.12500000000E+03  0.12500000000E+03 0.  0.
        -11    1    3    3    0    0 -0.14588710555E+01  0.43581444336E+02 -0.56962308776E+01  0.43976330470E+02  0.51100000000E-03 0.  1.
         23    2    1    0    0    0 -0.21594100264E+02 -0.24507947722E+01 -0.19197943720E+02  0.96002196561E+02  0.91518026313E+02 0.  0.
         11    1    3    3    0    0 -0.20135229208E+02 -0.46032239108E+02 -0.13501712842E+02  0.52025866091E+02  0.51100000000E-03 0. -1.
         22    1    1    0    0    0  0.21594100264E+02  0.24507947722E+01  0.19197943720E+02  0.28997803439E+02  0.00000000000E+00 0. -1.
</event>
<event>
 5    1  0.1096978E-009  0.9118800E+02  0.7818608E-02  0.1130116E+00
         25   -1    0    0    0    0  0.00000000000E+00  0.00000000000E+00  0.99999998245E-14  0.12500000000E+03  0.12500000000E+03 0.  0.
        -11    1    3    3    0    0  0.32186778601E+02  0.34185073713E+02  0.37756486310E+02  0.60250811117E+02  0.51100000000E-03 0.  1.
         23    2    1    0    0    0  0.12321393459E+02  0.77175182255E+01  0.25701375185E+02  0.95471411975E+02  0.90790159125E+02 0.  0.
         11    1    3    3    0    0 -0.19865385143E+02 -0.26467555488E+02 -0.12055111125E+02  0.35220600859E+02  0.51100000000E-03 0. -1.
         22    1    1    0    0    0 -0.12321393459E+02 -0.77175182255E+01 -0.25701375185E+02  0.29528588025E+02  0.00000000000E+00 0.  1.
</event>
<event>
 5    1  0.1096978E-009  0.9118800E+02  0.7818608E-02  0.1130116E+00
         25   -1    0    0    0    0  0.00000000000E+00  0.00000000000E+00  0.99999998245E-14  0.12500000000E+03  0.12500000000E+03 0.  0.
        -11    1    3    3    0    0  0.49773844843E+02 -0.14965854011E+02  0.10992955771E+02  0.53124923469E+02  0.51100000000E-03 0. -1.
         23    2    1    0    0    0  0.12532166851E+02  0.30784623669E+01  0.25042815409E+02  0.96827766505E+02  0.92638769563E+02 0.  0.
         11    1    3    3    0    0 -0.37241677993E+02  0.18044316378E+02  0.14049859638E+02  0.43702843035E+02  0.51100000000E-03 0.  1.
         22    1    1    0    0    0 -0.12532166851E+02 -0.30784623669E+01 -0.25042815409E+02  0.28172233495E+02  0.00000000000E+00 0. -1.
</event>
<event>
 5    1  0.1096978E-009  0.9118800E+02  0.7818608E-02  0.1130116E+00
         25   -1    0    0    0    0  0.00000000000E+00  0.00000000000E+00  0.99999998245E-14  0.12500000000E+03  0.12500000000E+03 0.  0.
        -11    1    3    3    0    0 -0.30521870656E+02 -0.15129826580E+02 -0.10692731885E+02  0.35704772176E+02  0.51100000000E-03 0.  1.
         23    2    1    0    0    0  0.26666065809E+02 -0.85357917454E+01  0.73853016407E+01  0.96043455199E+02  0.91574362132E+02 0.  0.
         11    1    3    3    0    0  0.57187936466E+02  0.65940348347E+01  0.18078033526E+02  0.60338683024E+02  0.51100000000E-03 0. -1.
         22    1    1    0    0    0 -0.26666065809E+02  0.85357917454E+01 -0.73853016407E+01  0.28956544801E+02  0.00000000000E+00 0. -1.
</event>
<event>
 5    1  0.1096978E-009  0.9118800E+02  0.7818608E-02  0.1130116E+00
         25   -1    0    0    0    0  0.00000000000E+00  0.00000000000E+00  0.99999998245E-14  0.12500000000E+03  0.12500000000E+03 0.  0.
        -11    1    3    3    0    0 -0.12084149672E+02 -0.32797112589E+01  0.32554088573E+02  0.34879103520E+02  0.51100000000E-03 0.  1.
         23    2    1    0    0    0  0.13840563029E+01 -0.11908409919E+02 -0.26421788512E+02  0.95985576917E+02  0.91495323537E+02 0.  0.
         11    1    3    3    0    0  0.13468205975E+02 -0.86286986606E+01 -0.58975877086E+02  0.61106473397E+02  0.51100000000E-03 0. -1.
         22    1    1    0    0    0 -0.13840563029E+01  0.11908409919E+02  0.26421788512E+02  0.29014423083E+02  0.00000000000E+00 0. -1.
</event>
<event>
 5    1  0.1096978E-009  0.9118800E+02  0.7818608E-02  0.1130116E+00
         25   -1    0    0    0    0  0.00000000000E+00  0.00000000000E+00  0.99999998245E-14  0.12500000000E+03  0.12500000000E+03 0.  0.
        -11    1    3    3    0    0  0.39387809035E+01 -0.30273660075E+02 -0.37672873917E+02  0.48489730034E+02  0.51100000000E-03 0. -1.
         23    2    1    0    0    0 -0.16019869962E+02 -0.24901162492E+02  0.41114771532E+01  0.95106716951E+02  0.90286650385E+02 0.  0.
         11    1    3    3    0    0 -0.19958650866E+02  0.53724975832E+01  0.41784351070E+02  0.46616986917E+02  0.51100000000E-03 0.  1.
         22    1    1    0    0    0  0.16019869962E+02  0.24901162492E+02 -0.41114771532E+01  0.29893283049E+02  0.00000000000E+00 0.  1.
</event>
<event>
 5    1  0.1096978E-009  0.9118800E+02  0.7818608E-02  0.1130116E+00
         25   -1    0    0    0    0  0.00000000000E+00  0.00000000000E+00  0.99999998245E-14  0.12500000000E+03  0.12500000000E+03 0.  0.
        -11    1    3    3    0    0  0.74092508401E+01  0.42050713825E+02 -0.13015903880E+02  0.44638249128E+02  0.51100000000E-03 0. -1.
         23    2    1    0    0    0  0.13303002611E+02 -0.97596570143E+01 -0.21947861105E+02  0.97542225316E+02  0.93597843614E+02 0.  0.
         11    1    3    3    0    0  0.58937517706E+01 -0.51810370839E+02 -0.89319572251E+01  0.52903976188E+02  0.51100000000E-03 0.  1.
         22    1    1    0    0    0 -0.13303002611E+02  0.97596570143E+01  0.21947861105E+02  0.27457774684E+02  0.00000000000E+00 0.  1.
</event>
<event>
 5    1  0.1096978E-009  0.9118800E+02  0.7818608E-02  0.1130116E+00
         25   -1    0    0    0    0  0.00000000000E+00  0.00000000000E+00  0.99999998245E-14  0.12500000000E+03  0.12500000000E+03 0.  0.
        -11    1    3    3    0    0  0.34174466858E+01 -0.12903164671E+02  0.32089777003E+02  0.34755206642E+02  0.51100000000E-03 0. -1.
         23    2    1    0    0    0  0.14273026057E+02 -0.73122205281E+01 -0.26184301954E+02  0.94294861819E+02  0.89155568837E+02 0.  0.
         11    1    3    3    0    0  0.10855579371E+02  0.55909441424E+01 -0.58274078958E+02  0.59539655177E+02  0.51100000000E-03 0.  1.
         22    1    1    0    0    0 -0.14273026057E+02  0.73122205281E+01  0.26184301954E+02  0.30705138181E+02  0.00000000000E+00 0.  1.
</event>
<event>
 5    1  0.1096978E-009  0.9118800E+02  0.7818608E-02  0.1130116E+00
         25   -1    0    0    0    0  0.00000000000E+00  0.00000000000E+00  0.99999998245E-14  0.12500000000E+03  0.12500000000E+03 0.  0.
        -11    1    3    3    0    0 -0.13961999299E+02 -0.34427456769E+02  0.78648259452E+01  0.37974237206E+02  0.51100000000E-03 0. -1.
         23    2    1    0    0    0 -0.94709816930E+00  0.10431657822E+02 -0.26855451925E+02  0.96174112712E+02  0.91752537719E+02 0.  0.
         11    1    3    3    0    0  0.13014901130E+02  0.44859114590E+02 -0.34720277870E+02  0.58199875506E+02  0.51100000000E-03 0.  1.
         22    1    1    0    0    0  0.94709816930E+00 -0.10431657822E+02  0.26855451925E+02  0.28825887288E+02  0.00000000000E+00 0.  1.
</event>
<event>
 5    1  0.1096978E-009  0.9118800E+02  0.7818608E-02  0.1130116E+00
         25   -1    0    0    0    0  0.00000000000E+00  0.00000000000E+00  0.99999998245E-14  0.12500000000E+03  0.12500000000E+03 0.  0.
        -11    1    3    3    0    0 -0.34692416257E+02 -0.43873270651E+02  0.15543909573E+02  0.58052052061E+02  0.51100000000E-03 0. -1.
         23    2    1    0    0    0 -0.21051962633E+02 -0.27122019438E+02 -0.77306648632E+01  0.89806928973E+02  0.82624041557E+02 0.  0.
         11    1    3    3    0    0  0.13640453624E+02  0.16751251213E+02 -0.23274574436E+02  0.31754876912E+02  0.51100000000E-03 0.  1.
         22    1    1    0    0    0  0.21051962633E+02  0.27122019438E+02  0.77306648632E+01  0.35193071027E+02  0.00000000000E+00 0. -1.
</event>
<event>
 5    1  0.1096978E-009  0.9118800E+02  0.7818608E-02  0.1130116E+00
         25   -1    0    0    0    0  0.00000000000E+00  0.00000000000E+00  0.99999998245E-14  0.12500000000E+03  0.12500000000E+03 0.  0.
        -11    1    3    3    0    0  0.37191745577E+02 -0.84726522078E+01  0.33700165597E+02  0.50899046514E+02  0.51100000000E-03 0.  1.
         23    2    1    0    0    0  0.69011969229E+01 -0.27520645636E+02  0.63787864801E+01  0.95919054827E+02  0.91404396540E+02 0.  0.
         11    1    3    3    0    0 -0.30290548654E+02 -0.19047993428E+02 -0.27321379117E+02  0.45020008313E+02  0.51100000000E-03 0. -1.
         22    1    1    0    0    0 -0.69011969229E+01  0.27520645636E+02 -0.63787864801E+01  0.29080945173E+02  0.00000000000E+00 0.  1.
</event>
<event>
 5    1  0.1096978E-009  0.9118800E+02  0.7818608E-02  0.1130116E+00
         25   -1    0    0    0    0  0.00000000000E+00  0.00000000000E+00  0.99999998245E-14  0.12500000000E+03  0.12500000000E+03 0.  0.
        -11    1    3    3    0    0 -0.36575735389E+02  0.39992507960E+02  0.10720656460E+02  0.55245973494E+02  0.51100000000E-03 0.  1.
         23    2    1    0    0    0  0.95729267915E+00  0.29949603652E+02  0.27442362622E+01  0.94909702546E+02  0.90013474750E+02 0.  0.
         11    1    3    3    0    0  0.37533028068E+02 -0.10042904308E+02 -0.79764201974E+01  0.39663729052E+02  0.51100000000E-03 0. -1.
         22    1    1    0    0    0 -0.95729267915E+00 -0.29949603652E+02 -0.27442362622E+01  0.30090297454E+02  0.00000000000E+00 0.  1.
</event>
<event>
 5    1  0.1096978E-009  0.9118800E+02  0.7818608E-02  0.1130116E+00
         25   -1    0    0    0    0  0.00000000000E+00  0.00000000000E+00  0.99999998245E-14  0.12500000000E+03  0.12500000000E+03 0.  0.
        -11    1    3    3    0    0 -0.16633570384E+02 -0.37426961513E+02 -0.22849406726E+02  0.46899344343E+02  0.51100000000E-03 0.  1.
         23    2    1    0    0    0 -0.24912184034E+02  0.60786701956E+01  0.45216488137E+01  0.98961327747E+02  0.95474247506E+02 0.  0.
         11    1    3    3    0    0 -0.82786136500E+01  0.43505631708E+02  0.27371055540E+02  0.52061983404E+02  0.51100000000E-03 0. -1.
         22    1    1    0    0    0  0.24912184034E+02 -0.60786701956E+01 -0.45216488137E+01  0.26038672253E+02  0.00000000000E+00 0. -1.
</event>
<event>
 5    1  0.1096978E-009  0.9118800E+02  0.7818608E-02  0.1130116E+00
         25   -1    0    0    0    0  0.00000000000E+00  0.00000000000E+00  0.99999998245E-14  0.12500000000E+03  0.12500000000E+03 0.  0.
        -11    1    3    3    0    0  0.15827598179E+02  0.25058020672E+02 -0.26155923025E+02  0.39529097810E+02  0.51100000000E-03 0.  1.
         23    2    1    0    0    0 -0.24315431293E+02 -0.10628628151E+02 -0.15434710015E+02  0.94300843520E+02  0.89163955049E+02 0.  0.
         11    1    3    3    0    0 -0.40143029472E+02 -0.35686648823E+02  0.10721213010E+02  0.54771745710E+02  0.51100000000E-03 0. -1.
         22    1    1    0    0    0  0.24315431293E+02  0.10628628151E+02  0.15434710015E+02  0.30699156480E+02  0.00000000000E+00 0. -1.
</event>
<event>
 5    1  0.1096978E-009  0.9118800E+02  0.7818608E-02  0.1130116E+00
         25   -1    0    0    0    0  0.00000000000E+00  0.00000000000E+00  0.99999998245E-14  0.12500000000E+03  0.12500000000E+03 0.  0.
        -11    1    3    3    0    0  0.10303628454E+01 -0.23950877222E+02 -0.26858545703E+02  0.36001217269E+02  0.51100000000E-03 0.  1.
         23    2    1    0    0    0 -0.21624982379E+01 -0.93566402479E+00  0.28689880583E+02  0.96213525508E+02  0.91806216440E+02 0.  0.
         11    1    3    3    0    0 -0.31928610833E+01  0.23015213197E+02  0.55548426286E+02  0.60212308239E+02  0.51100000000E-03 0. -1.
         22    1    1    0    0    0  0.21624982379E+01  0.93566402479E+00 -0.28689880583E+02  0.28786474492E+02  0.00000000000E+00 0. -1.
</event>
<event>
 5    1  0.1096978E-009  0.9118800E+02  0.7818608E-02  0.1130116E+00
         25   -1    0    0    0    0  0.00000000000E+00  0.00000000000E+00  0.99999998245E-14  0.12500000000E+03  0.12500000000E+03 0.  0.
        -11    1    3    3    0    0  0.57797990592E+01 -0.17439598010E+02 -0.39563311173E+02  0.43621110109E+02  0.51100000000E-03 0.  1.
         23    2    1    0    0    0 -0.33734624517E+01 -0.26250924341E+02  0.11427953506E+02  0.96171378823E+02  0.91748813102E+02 0.  0.
         11    1    3    3    0    0 -0.91532615109E+01 -0.88113263307E+01  0.50991264679E+02  0.52550268713E+02  0.51100000000E-03 0. -1.
         22    1    1    0    0    0  0.33734624517E+01  0.26250924341E+02 -0.11427953506E+02  0.28828621177E+02  0.00000000000E+00 0. -1.
</event>
<event>
 5    1  0.1096978E-009  0.9118800E+02  0.7818608E-02  0.1130116E+00
         25   -1    0    0    0    0  0.00000000000E+00  0.00000000000E+00  0.99999998245E-14  0.12500000000E+03  0.12500000000E+03 0.  0.
        -11    1    3    3    0    0  0.26314508585E+01 -0.19262490992E+02  0.57548099114E+02  0.60743327244E+02  0.51100000000E-03 0.  1.
         23    2    1    0    0    0  0.69024199239E+01 -0.16650610667E+02  0.22388758070E+02  0.96257301374E+02  0.91865800728E+02 0.  0.
         11    1    3    3    0    0  0.42709690654E+01  0.26118803250E+01 -0.35159341044E+02  0.35513974130E+02  0.51100000000E-03 0. -1.
         22    1    1    0    0    0 -0.69024199239E+01  0.16650610667E+02 -0.22388758070E+02  0.28742698626E+02  0.00000000000E+00 0.  1.
</event>
<event>
 5    1  0.1096978E-009  0.9118800E+02  0.7818608E-02  0.1130116E+00
         25   -1    0    0    0    0  0.00000000000E+00  0.00000000000E+00  0.99999998245E-14  0.12500000000E+03  0.12500000000E+03 0.  0.
        -11    1    3    3    0    0  0.41701737988E+02 -0.16708676902E+02 -0.62107188823E+01  0.45351823165E+02  0.51100000000E-03 0.  1.
         23    2    1    0    0    0  0.87470301840E+01  0.24645847848E+02  0.15724529376E+01  0.98800745021E+02  0.95263771998E+02 0.  0.
         11    1    3    3    0    0 -0.32954707804E+02  0.41354524751E+02  0.77831718199E+01  0.53448921857E+02  0.51100000000E-03 0. -1.
         22    1    1    0    0    0 -0.87470301840E+01 -0.24645847848E+02 -0.15724529376E+01  0.26199254979E+02  0.00000000000E+00 0.  1.
</event>
<event>
 5    1  0.1096978E-009  0.9118800E+02  0.7818608E-02  0.1130116E+00
         25   -1    0    0    0    0  0.00000000000E+00  0.00000000000E+00  0.99999998245E-14  0.12500000000E+03  0.12500000000E+03 0.  0.
        -11    1    3    3    0    0 -0.26259225924E+02  0.29550905150E+02 -0.64439454802E+01  0.40054055661E+02  0.51100000000E-03 0.  1.
         23    2    1    0    0    0  0.10923296264E+02  0.20757206099E+00  0.25549203557E+02  0.97212893461E+02  0.93156982375E+02 0.  0.
         11    1    3    3    0    0  0.37182522188E+02 -0.29343333089E+02  0.31993149037E+02  0.57158837800E+02  0.51100000000E-03 0. -1.
         22    1    1    0    0    0 -0.10923296264E+02 -0.20757206099E+00 -0.25549203557E+02  0.27787106539E+02  0.00000000000E+00 0. -1.
</event>
<event>
 5    1  0.1096978E-009  0.9118800E+02  0.7818608E-02  0.1130116E+00
         25   -1    0    0    0    0  0.00000000000E+00  0.00000000000E+00  0.99999998245E-14  0.12500000000E+03  0.12500000000E+03 0.  0.
        -11    1    3    3    0    0  0.12836053407E+02  0.31574673690E+02 -0.90826727746E+01  0.35273491898E+02  0.51100000000E-03 0. -1.
         23    2    1    0    0    0 -0.16029355352E+02 -0.20999743256E+02 -0.13345572134E+02  0.95402132755E+02  0.90694725254E+02 0.  0.
         11    1    3    3    0    0 -0.28865408760E+02 -0.52574416946E+02 -0.42628993596E+01  0.60128640857E+02  0.51100000000E-03 0.  1.
         22    1    1    0    0    0  0.16029355352E+02  0.20999743256E+02  0.13345572134E+02  0.29597867245E+02  0.00000000000E+00 0.  1.
</event>
<event>
 5    1  0.1096978E-009  0.9118800E+02  0.7818608E-02  0.1130116E+00
         25   -1    0    0    0    0  0.00000000000E+00  0.00000000000E+00  0.99999998245E-14  0.12500000000E+03  0.12500000000E+03 0.  0.
        -11    1    3    3    0    0  0.12079242891E+02 -0.50934081764E+02  0.10057862905E+02  0.53304309398E+02  0.51100000000E-03 0. -1.
         23    2    1    0    0    0  0.25228994399E+02 -0.86318675179E+01  0.46638581614E+01  0.97930406945E+02  0.94114832711E+02 0.  0.
         11    1    3    3    0    0  0.13149751508E+02  0.42302214246E+02 -0.53940047435E+01  0.44626097547E+02  0.51100000000E-03 0.  1.
         22    1    1    0    0    0 -0.25228994399E+02  0.86318675179E+01 -0.46638581614E+01  0.27069593055E+02  0.00000000000E+00 0.  1.
</event>
<event>
 5    1  0.1096978E-009  0.9118800E+02  0.7818608E-02  0.1130116E+00
         25   -1    0    0    0    0  0.00000000000E+00  0.00000000000E+00  0.99999998245E-14  0.12500000000E+03  0.12500000000E+03 0.  0.
        -11    1    3    3    0    0  0.32707084897E+02 -0.27842743571E+02 -0.37725763162E+02  0.57168216506E+02  0.51100000000E-03 0. -1.
         23    2    1    0    0    0  0.10624171783E+01 -0.24520573358E+02 -0.17089427560E+02  0.95092880740E+02  0.90267492405E+02 0.  0.
         11    1    3    3    0    0 -0.31644667719E+02  0.33221702125E+01  0.20636335602E+02  0.37924664235E+02  0.51100000000E-03 0.  1.
         22    1    1    0    0    0 -0.10624171783E+01  0.24520573358E+02  0.17089427560E+02  0.29907119260E+02  0.00000000000E+00 0. -1.
</event>
<event>
 5    1  0.1096978E-009  0.9118800E+02  0.7818608E-02  0.1130116E+00
         25   -1    0    0    0    0  0.00000000000E+00  0.00000000000E+00  0.99999998245E-14  0.12500000000E+03  0.12500000000E+03 0.  0.
        -11    1    3    3    0    0  0.51553452129E+01 -0.26322229911E+02  0.28828755671E+02  0.39376827266E+02  0.51100000000E-03 0.  1.
         23    2    1    0    0    0 -0.21394605052E+02  0.18503228418E+02  0.70174756054E+01  0.95856500706E+02  0.91318810639E+02 0.  0.
         11    1    3    3    0    0 -0.26549950265E+02  0.44825458329E+02 -0.21811280065E+02  0.56479673440E+02  0.51100000000E-03 0. -1.
         22    1    1    0    0    0  0.21394605052E+02 -0.18503228418E+02 -0.70174756054E+01  0.29143499294E+02  0.00000000000E+00 0. -1.
</event>
<event>
 5    1  0.1096978E-009  0.9118800E+02  0.7818608E-02  0.1130116E+00
         25   -1    0    0    0    0  0.00000000000E+00  0.00000000000E+00  0.99999998245E-14  0.12500000000E+03  0.12500000000E+03 0.  0.
        -11    1    3    3    0    0  0.25363550835E+02 -0.31246283306E+02  0.44093617024E+02  0.59698299757E+02  0.51100000000E-03 0.  1.
         23    2    1    0    0    0  0.38894801067E+01 -0.60109788380E+01  0.27164444254E+02  0.96907884492E+02  0.92746811929E+02 0.  0.
         11    1    3    3    0    0 -0.21474070728E+02  0.25235304468E+02 -0.16929172769E+02  0.37209584735E+02  0.51100000000E-03 0. -1.
         22    1    1    0    0    0 -0.38894801067E+01  0.60109788380E+01 -0.27164444254E+02  0.28092115508E+02  0.00000000000E+00 0.  1.
</event>
<event>
 5    1  0.1096978E-009  0.9118800E+02  0.7818608E-02  0.1130116E+00
         25   -1    0    0    0    0  0.00000000000E+00  0.00000000000E+00  0.99999998245E-14  0.12500000000E+03  0.12500000000E+03 0.  0.
        -11    1    3    3    0    0 -0.21366657112E+02 -0.25177462160E+02  0.40121852411E+01  0.33264639899E+02  0.51100000000E-03 0. -1.
         23    2    1    0    0    0  0.23930537671E+02  0.11256318336E+02 -0.15210787842E+02  0.94491912507E+02  0.89431415770E+02 0.  0.
         11    1    3    3    0    0  0.45297194783E+02  0.36433780497E+02 -0.19222973083E+02  0.61227272607E+02  0.51100000000E-03 0.  1.
         22    1    1    0    0    0 -0.23930537671E+02 -0.11256318336E+02  0.15210787842E+02  0.30508087493E+02  0.00000000000E+00 0.  1.
</event>
<event>
 5    1  0.1096978E-009  0.9118800E+02  0.7818608E-02  0.1130116E+00
         25   -1    0    0    0    0  0.00000000000E+00  0.00000000000E+00  0.99999998245E-14  0.12500000000E+03  0.12500000000E+03 0.  0.
        -11    1    3    3    0    0  0.37222880462E+02  0.33562793314E+02  0.19533996905E+02  0.53792015766E+02  0.51100000000E-03 0.  1.
         23    2    1    0    0    0  0.27456910000E+02  0.18094256759E+02 -0.11790680134E+02  0.90067147662E+02  0.83016786951E+02 0.  0.
         11    1    3    3    0    0 -0.97659704619E+01 -0.15468536554E+02 -0.31324677039E+02  0.36275131896E+02  0.51100000000E-03 0. -1.
         22    1    1    0    0    0 -0.27456910000E+02 -0.18094256759E+02  0.11790680134E+02  0.34932852338E+02  0.00000000000E+00 0.  1.
</event>
<event>
 5    1  0.1096978E-009  0.9118800E+02  0.7818608E-02  0.1130116E+00
         25   -1    0    0    0    0  0.00000000000E+00  0.00000000000E+00  0.99999998245E-14  0.12500000000E+03  0.12500000000E+03 0.  0.
        -11    1    3    3    0    0 -0.42468235530E+02 -0.29526207040E+01  0.43421974088E+02  0.60809019331E+02  0.51100000000E-03 0. -1.
         23    2    1    0    0    0 -0.18686305498E+02  0.86777990231E+01  0.21948719757E+02  0.94896370518E+02  0.89994958911E+02 0.  0.
         11    1    3    3    0    0  0.23781930032E+02  0.11630419727E+02 -0.21473254331E+02  0.34087351186E+02  0.51100000000E-03 0.  1.
         22    1    1    0    0    0  0.18686305498E+02 -0.86777990231E+01 -0.21948719757E+02  0.30103629482E+02  0.00000000000E+00 0. -1.
</event>
<event>
 5    1  0.1096978E-009  0.9118800E+02  0.7818608E-02  0.1130116E+00
         25   -1    0    0    0    0  0.00000000000E+00  0.00000000000E+00  0.99999998245E-14  0.12500000000E+03  0.12500000000E+03 0.  0.
        -11    1    3    3    0    0  0.32302201339E+02 -0.72542786542E+01 -0.35471768993E+02  0.48521162042E+02  0.51100000000E-03 0.  1.
         23    2    1    0    0    0  0.27824760111E+02  0.10134145180E+02  0.69466105202E+01  0.94583333985E+02  0.89559106161E+02 0.  0.
         11    1    3    3    0    0 -0.44774412283E+01  0.17388423834E+02  0.42418379513E+02  0.46062171944E+02  0.51100000000E-03 0. -1.
         22    1    1    0    0    0 -0.27824760111E+02 -0.10134145180E+02 -0.69466105202E+01  0.30416666015E+02  0.00000000000E+00 0.  1.
</event>
<event>
 5    1  0.1096978E-009  0.9118800E+02  0.7818608E-02  0.1130116E+00
         25   -1    0    0    0    0  0.00000000000E+00  0.00000000000E+00  0.99999998245E-14  0.12500000000E+03  0.12500000000E+03 0.  0.
        -11    1    3    3    0    0  0.39546064121E+02 -0.21039748038E+00 -0.74103470585E+01  0.40234918894E+02  0.51100000000E-03 0.  1.
         23    2    1    0    0    0 -0.99531997883E+01 -0.26554021452E+02 -0.30927584381E+01  0.96473741990E+02  0.92159836683E+02 0.  0.
         11    1    3    3    0    0 -0.49499263909E+02 -0.26343623971E+02  0.43175886204E+01  0.56238823097E+02  0.51100000000E-03 0. -1.
         22    1    1    0    0    0  0.99531997883E+01  0.26554021452E+02  0.30927584381E+01  0.28526258010E+02  0.00000000000E+00 0. -1.
</event>
<event>
 5    1  0.1096978E-009  0.9118800E+02  0.7818608E-02  0.1130116E+00
         25   -1    0    0    0    0  0.00000000000E+00  0.00000000000E+00  0.99999998245E-14  0.12500000000E+03  0.12500000000E+03 0.  0.
        -11    1    3    3    0    0 -0.22952704488E+02 -0.18232897592E+02 -0.51601386431E+02  0.59346173253E+02  0.51100000000E-03 0.  1.
         23    2    1    0    0    0 -0.49526175573E+01 -0.20410627909E+02 -0.18863482185E+02  0.96769642007E+02  0.92560307377E+02 0.  0.
         11    1    3    3    0    0  0.18000086931E+02 -0.21777303161E+01  0.32737904246E+02  0.37423468754E+02  0.51100000000E-03 0. -1.
         22    1    1    0    0    0  0.49526175573E+01  0.20410627909E+02  0.18863482185E+02  0.28230357993E+02  0.00000000000E+00 0.  1.
</event>
<event>
 5    1  0.1096978E-009  0.9118800E+02  0.7818608E-02  0.1130116E+00
         25   -1    0    0    0    0  0.00000000000E+00  0.00000000000E+00  0.99999998245E-14  0.12500000000E+03  0.12500000000E+03 0.  0.
        -11    1    3    3    0    0  0.91440983717E+01  0.23847069251E+02 -0.35238653932E+02  0.43520799374E+02  0.51100000000E-03 0. -1.
         23    2    1    0    0    0  0.90259833033E+01  0.16412041435E+02  0.19031220872E+02  0.98297737052E+02  0.94601449582E+02 0.  0.
         11    1    3    3    0    0 -0.11811506845E+00 -0.74350278164E+01  0.54269874805E+02  0.54776937678E+02  0.51100000000E-03 0.  1.
         22    1    1    0    0    0 -0.90259833033E+01 -0.16412041435E+02 -0.19031220872E+02  0.26702262948E+02  0.00000000000E+00 0.  1.
</event>
<event>
 4    1  0.1096978E-009  0.9118800E+02  0.7818608E-02  0.1130116E+00
         25   -1    0    0    0    0  0.00000000000E+00  0.00000000000E+00  0.99999998245E-14  0.12500000000E+03  0.12500000000E+03 0.  0.
        -11    1    1    0    0    0  0.11671598605E+02 -0.62048484854E+01  0.22475492481E+02  0.26074395894E+02  0.51100000000E-03 0.  1.
         11    1    1    0    0    0  0.40852632727E+02  0.83630348998E+01 -0.20130976600E+02  0.46304796431E+02  0.51100000000E-03 0. -1.
         22    1    1    0    0    0 -0.52524231332E+02 -0.21581864144E+01 -0.23445158814E+01  0.52620807674E+02  0.00000000000E+00 0. -1.
</event>
<event>
 5    1  0.1096978E-009  0.9118800E+02  0.7818608E-02  0.1130116E+00
         25   -1    0    0    0    0  0.00000000000E+00  0.00000000000E+00  0.99999998245E-14  0.12500000000E+03  0.12500000000E+03 0.  0.
        -11    1    3    3    0    0 -0.12590209319E+02 -0.40625123872E+02 -0.13655434553E+02  0.44669731960E+02  0.51100000000E-03 0. -1.
         23    2    1    0    0    0 -0.21038136354E+02  0.89319403314E+01 -0.19071345441E+02  0.95232585664E+02  0.90460745166E+02 0.  0.
         11    1    3    3    0    0 -0.84479270344E+01  0.49557064204E+02 -0.54159108880E+01  0.50562853704E+02  0.51100000000E-03 0.  1.
         22    1    1    0    0    0  0.21038136354E+02 -0.89319403314E+01  0.19071345441E+02  0.29767414336E+02  0.00000000000E+00 0.  1.
</event>
<event>
 5    1  0.1096978E-009  0.9118800E+02  0.7818608E-02  0.1130116E+00
         25   -1    0    0    0    0  0.00000000000E+00  0.00000000000E+00  0.99999998245E-14  0.12500000000E+03  0.12500000000E+03 0.  0.
        -11    1    3    3    0    0  0.58772529112E+02  0.10077645101E+02  0.18196163426E+02  0.62344762993E+02  0.51100000000E-03 0. -1.
         23    2    1    0    0    0  0.25953257743E+02  0.75578226079E+01  0.87022248519E+01  0.96602447510E+02  0.92334240006E+02 0.  0.
         11    1    3    3    0    0 -0.32819271368E+02 -0.25198224933E+01 -0.94939385744E+01  0.34257684517E+02  0.51100000000E-03 0.  1.
         22    1    1    0    0    0 -0.25953257743E+02 -0.75578226079E+01 -0.87022248519E+01  0.28397552490E+02  0.00000000000E+00 0. -1.
</event>
<event>
 5    1  0.1096978E-009  0.9118800E+02  0.7818608E-02  0.1130116E+00
         25   -1    0    0    0    0  0.00000000000E+00  0.00000000000E+00  0.99999998245E-14  0.12500000000E+03  0.12500000000E+03 0.  0.
        -11    1    3    3    0    0 -0.60234246206E+02  0.70285533117E+00 -0.14727623059E+01  0.60256347805E+02  0.51100000000E-03 0. -1.
         23    2    1    0    0    0 -0.26126539893E+02 -0.37586693836E+01 -0.11678008675E+02  0.96136535743E+02  0.91701330065E+02 0.  0.
         11    1    3    3    0    0  0.34107706314E+02 -0.44615247148E+01 -0.10205246369E+02  0.35880187938E+02  0.51100000000E-03 0.  1.
         22    1    1    0    0    0  0.26126539893E+02  0.37586693836E+01  0.11678008675E+02  0.28863464257E+02  0.00000000000E+00 0. -1.
</event>
<event>
 5    1  0.1096978E-009  0.9118800E+02  0.7818608E-02  0.1130116E+00
         25   -1    0    0    0    0  0.00000000000E+00  0.00000000000E+00  0.99999998245E-14  0.12500000000E+03  0.12500000000E+03 0.  0.
        -11    1    3    3    0    0  0.49804819330E+02 -0.34499099402E+02 -0.10450321563E+02  0.61481030482E+02  0.51100000000E-03 0. -1.
         23    2    1    0    0    0  0.20435331249E+02 -0.21450468684E+02  0.30892793762E+00  0.95371959118E+02  0.90653128901E+02 0.  0.
         11    1    3    3    0    0 -0.29369488081E+02  0.13048630718E+02  0.10759249501E+02  0.33890928636E+02  0.51100000000E-03 0.  1.
         22    1    1    0    0    0 -0.20435331249E+02  0.21450468684E+02 -0.30892793762E+00  0.29628040882E+02  0.00000000000E+00 0. -1.
</event>
<event>
 5    1  0.1096978E-009  0.9118800E+02  0.7818608E-02  0.1130116E+00
         25   -1    0    0    0    0  0.00000000000E+00  0.00000000000E+00  0.99999998245E-14  0.12500000000E+03  0.12500000000E+03 0.  0.
        -11    1    3    3    0    0  0.24349467943E+02 -0.14410217571E+02 -0.44817250110E+02  0.53001291185E+02  0.51100000000E-03 0. -1.
         23    2    1    0    0    0  0.23493325157E+02  0.12880205162E+02 -0.12136426604E+02  0.95586927011E+02  0.90949061307E+02 0.  0.
         11    1    3    3    0    0 -0.85614278619E+00  0.27290422732E+02  0.32680823506E+02  0.42585635826E+02  0.51100000000E-03 0.  1.
         22    1    1    0    0    0 -0.23493325157E+02 -0.12880205162E+02  0.12136426604E+02  0.29413072989E+02  0.00000000000E+00 0. -1.
</event>
<event>
 5    1  0.1096978E-009  0.9118800E+02  0.7818608E-02  0.1130116E+00
         25   -1    0    0    0    0  0.00000000000E+00  0.00000000000E+00  0.99999998245E-14  0.12500000000E+03  0.12500000000E+03 0.  0.
        -11    1    3    3    0    0 -0.24838656582E+02 -0.22470340152E+02  0.18422257526E+02  0.38226360276E+02  0.51100000000E-03 0. -1.
         23    2    1    0    0    0  0.17458942882E+02 -0.12844827483E+02 -0.19499954613E+02  0.95844340008E+02  0.91302163184E+02 0.  0.
         11    1    3    3    0    0  0.42297599464E+02  0.96255126684E+01 -0.37922212140E+02  0.57617979732E+02  0.51100000000E-03 0.  1.
         22    1    1    0    0    0 -0.17458942882E+02  0.12844827483E+02  0.19499954613E+02  0.29155659992E+02  0.00000000000E+00 0.  1.
</event>
<event>
 5    1  0.1096978E-009  0.9118800E+02  0.7818608E-02  0.1130116E+00
         25   -1    0    0    0    0  0.00000000000E+00  0.00000000000E+00  0.99999998245E-14  0.12500000000E+03  0.12500000000E+03 0.  0.
        -11    1    3    3    0    0  0.29755838000E+02  0.16228708626E+02  0.27570006932E+02  0.43690801793E+02  0.51100000000E-03 0. -1.
         23    2    1    0    0    0  0.15885514900E+02  0.11320991937E+02 -0.22116609990E+02  0.95510020693E+02  0.90843300101E+02 0.  0.
         11    1    3    3    0    0 -0.13870323101E+02 -0.49077166887E+01 -0.49686616922E+02  0.51819218900E+02  0.51100000000E-03 0.  1.
         22    1    1    0    0    0 -0.15885514900E+02 -0.11320991937E+02  0.22116609990E+02  0.29489979307E+02  0.00000000000E+00 0.  1.
</event>
<event>
 5    1  0.1096978E-009  0.9118800E+02  0.7818608E-02  0.1130116E+00
         25   -1    0    0    0    0  0.00000000000E+00  0.00000000000E+00  0.99999998245E-14  0.12500000000E+03  0.12500000000E+03 0.  0.
        -11    1    3    3    0    0 -0.28608757054E+02 -0.11894045929E+02  0.19499363632E+02  0.36608120562E+02  0.51100000000E-03 0.  1.
         23    2    1    0    0    0  0.28205545679E+02 -0.41621587829E+01  0.26734508124E+01  0.96363943846E+02  0.92010792636E+02 0.  0.
         11    1    3    3    0    0  0.56814302733E+02  0.77318871466E+01 -0.16825912820E+02  0.59755823284E+02  0.51100000000E-03 0. -1.
         22    1    1    0    0    0 -0.28205545679E+02  0.41621587829E+01 -0.26734508124E+01  0.28636056154E+02  0.00000000000E+00 0. -1.
</event>
<event>
 5    1  0.1096978E-009  0.9118800E+02  0.7818608E-02  0.1130116E+00
         25   -1    0    0    0    0  0.00000000000E+00  0.00000000000E+00  0.99999998245E-14  0.12500000000E+03  0.12500000000E+03 0.  0.
        -11    1    3    3    0    0  0.24149037407E+01  0.16379488588E+02 -0.52570321946E+02  0.55115861204E+02  0.51100000000E-03 0. -1.
         23    2    1    0    0    0  0.19618733745E+02 -0.33039003260E+01 -0.22071079030E+02  0.95285643189E+02  0.90534031155E+02 0.  0.
         11    1    3    3    0    0  0.17203830005E+02 -0.19683388914E+02  0.30499242916E+02  0.40169781985E+02  0.51100000000E-03 0.  1.
         22    1    1    0    0    0 -0.19618733745E+02  0.33039003260E+01  0.22071079030E+02  0.29714356811E+02  0.00000000000E+00 0.  1.
</event>
<event>
 5    1  0.1096978E-009  0.9118800E+02  0.7818608E-02  0.1130116E+00
         25   -1    0    0    0    0  0.00000000000E+00  0.00000000000E+00  0.99999998245E-14  0.12500000000E+03  0.12500000000E+03 0.  0.
        -11    1    3    3    0    0  0.33453018356E+02  0.48712814057E+02  0.13950446720E+02  0.60717852848E+02  0.51100000000E-03 0.  1.
         23    2    1    0    0    0  0.15697311552E+02  0.24878833031E+02 -0.38042851612E+01  0.95337995541E+02  0.90606285021E+02 0.  0.
         11    1    3    3    0    0 -0.17755706804E+02 -0.23833981026E+02 -0.17754731881E+02  0.34620142693E+02  0.51100000000E-03 0. -1.
         22    1    1    0    0    0 -0.15697311552E+02 -0.24878833031E+02  0.38042851612E+01  0.29662004459E+02  0.00000000000E+00 0.  1.
</event>
<event>
 5    1  0.1096978E-009  0.9118800E+02  0.7818608E-02  0.1130116E+00
         25   -1    0    0    0    0  0.00000000000E+00  0.00000000000E+00  0.99999998245E-14  0.12500000000E+03  0.12500000000E+03 0.  0.
        -11    1    3    3    0    0  0.52202493603E+01 -0.26457515563E+02 -0.55277301185E+02  0.61504724694E+02  0.51100000000E-03 0.  1.
         23    2    1    0    0    0  0.30829861304E+00 -0.56223379796E+01 -0.29291859394E+02  0.95171846199E+02  0.90376775500E+02 0.  0.
         11    1    3    3    0    0 -0.49119507473E+01  0.20835177584E+02  0.25985441791E+02  0.33667121505E+02  0.51100000000E-03 0. -1.
         22    1    1    0    0    0 -0.30829861304E+00  0.56223379796E+01  0.29291859394E+02  0.29828153801E+02  0.00000000000E+00 0.  1.
</event>
<event>
 5    1  0.1096978E-009  0.9118800E+02  0.7818608E-02  0.1130116E+00
         25   -1    0    0    0    0  0.00000000000E+00  0.00000000000E+00  0.99999998245E-14  0.12500000000E+03  0.12500000000E+03 0.  0.
        -11    1    3    3    0    0  0.38097937187E+02 -0.81843396643E+01  0.20053831346E+01  0.39018685209E+02  0.51100000000E-03 0. -1.
         23    2    1    0    0    0 -0.13985634440E+02 -0.26957664570E+02  0.36837030926E+01  0.94407789910E+02  0.89313758612E+02 0.  0.
         11    1    3    3    0    0 -0.52083571627E+02 -0.18773324905E+02  0.16783199580E+01  0.55389104701E+02  0.51100000000E-03 0.  1.
         22    1    1    0    0    0  0.13985634440E+02  0.26957664570E+02 -0.36837030926E+01  0.30592210090E+02  0.00000000000E+00 0.  1.
</event>
<event>
 5    1  0.1096978E-009  0.9118800E+02  0.7818608E-02  0.1130116E+00
         25   -1    0    0    0    0  0.00000000000E+00  0.00000000000E+00  0.99999998245E-14  0.12500000000E+03  0.12500000000E+03 0.  0.
        -11    1    3    3    0    0 -0.58028671955E+01 -0.50019296370E+02 -0.13341195687E+02  0.52092137407E+02  0.51100000000E-03 0.  1.
         23    2    1    0    0    0  0.22699621266E+02 -0.19612506117E+02 -0.53749935624E+01  0.94523554052E+02  0.89475630834E+02 0.  0.
         11    1    3    3    0    0  0.28502488462E+02  0.30406790253E+02  0.79662021250E+01  0.42431416645E+02  0.51100000000E-03 0. -1.
         22    1    1    0    0    0 -0.22699621266E+02  0.19612506117E+02  0.53749935624E+01  0.30476445948E+02  0.00000000000E+00 0.  1.
</event>
<event>
 5    1  0.1096978E-009  0.9118800E+02  0.7818608E-02  0.1130116E+00
         25   -1    0    0    0    0  0.00000000000E+00  0.00000000000E+00  0.99999998245E-14  0.12500000000E+03  0.12500000000E+03 0.  0.
        -11    1    3    3    0    0  0.21212008348E+02  0.46232298818E+02  0.26962792044E+02  0.57570538535E+02  0.51100000000E-03 0. -1.
         23    2    1    0    0    0 -0.51647938854E+01  0.26067649270E+02  0.35667394766E+01  0.98187333873E+02  0.94455457588E+02 0.  0.
         11    1    3    3    0    0 -0.26376802233E+02 -0.20164649548E+02 -0.23396052568E+02  0.40616795337E+02  0.51100000000E-03 0.  1.
         22    1    1    0    0    0  0.51647938854E+01 -0.26067649270E+02 -0.35667394766E+01  0.26812666127E+02  0.00000000000E+00 0. -1.
</event>
<event>
 5    1  0.1096978E-009  0.9118800E+02  0.7818608E-02  0.1130116E+00
         25   -1    0    0    0    0  0.00000000000E+00  0.00000000000E+00  0.99999998245E-14  0.12500000000E+03  0.12500000000E+03 0.  0.
        -11    1    3    3    0    0  0.23239409378E+02  0.40931286058E+02  0.17538685000E+01  0.47101129303E+02  0.51100000000E-03 0.  1.
         23    2    1    0    0    0 -0.20636216076E+02  0.15573710289E+02 -0.62408943491E+01  0.98404086247E+02  0.94741868050E+02 0.  0.
         11    1    3    3    0    0 -0.43875625454E+02 -0.25357575769E+02 -0.79947628491E+01  0.51302956944E+02  0.51100000000E-03 0. -1.
         22    1    1    0    0    0  0.20636216076E+02 -0.15573710289E+02  0.62408943491E+01  0.26595913753E+02  0.00000000000E+00 0.  1.
</event>
<event>
 5    1  0.1096978E-009  0.9118800E+02  0.7818608E-02  0.1130116E+00
         25   -1    0    0    0    0  0.00000000000E+00  0.00000000000E+00  0.99999998245E-14  0.12500000000E+03  0.12500000000E+03 0.  0.
        -11    1    3    3    0    0  0.13632968435E+02 -0.27424385607E+02 -0.49523535206E+02  0.58228303202E+02  0.51100000000E-03 0. -1.
         23    2    1    0    0    0 -0.21506750730E+01 -0.24338214583E+02 -0.14958627692E+02  0.96351533466E+02  0.91993931139E+02 0.  0.
         11    1    3    3    0    0 -0.15783643508E+02  0.30861710239E+01  0.34564907514E+02  0.38123230263E+02  0.51100000000E-03 0.  1.
         22    1    1    0    0    0  0.21506750730E+01  0.24338214583E+02  0.14958627692E+02  0.28648466534E+02  0.00000000000E+00 0. -1.
</event>
<event>
 5    1  0.1096978E-009  0.9118800E+02  0.7818608E-02  0.1130116E+00
         25   -1    0    0    0    0  0.00000000000E+00  0.00000000000E+00  0.99999998245E-14  0.12500000000E+03  0.12500000000E+03 0.  0.
        -11    1    3    3    0    0  0.29078411211E+02  0.17252631866E+02  0.21039141201E+02  0.39822766950E+02  0.51100000000E-03 0.  1.
         23    2    1    0    0    0  0.74532757538E+00  0.16222188771E+02 -0.25764958292E+02  0.94544327334E+02  0.89504646994E+02 0.  0.
         11    1    3    3    0    0 -0.28333083635E+02 -0.10304430956E+01 -0.46804099493E+02  0.54721560384E+02  0.51100000000E-03 0. -1.
         22    1    1    0    0    0 -0.74532757538E+00 -0.16222188771E+02  0.25764958292E+02  0.30455672666E+02  0.00000000000E+00 0. -1.
</event>
<event>
 5    1  0.1096978E-009  0.9118800E+02  0.7818608E-02  0.1130116E+00
         25   -1    0    0    0    0  0.00000000000E+00  0.00000000000E+00  0.99999998245E-14  0.12500000000E+03  0.12500000000E+03 0.  0.
        -11    1    3    3    0    0 -0.25752248168E+01  0.44288687207E+02 -0.43330342762E+02  0.62013209895E+02  0.51100000000E-03 0. -1.
         23    2    1    0    0    0 -0.65125146772E+01  0.21165348839E+02 -0.18825943978E+02  0.95934539303E+02  0.91425569868E+02 0.  0.
         11    1    3    3    0    0 -0.39372898604E+01 -0.23123338369E+02  0.24504398784E+02  0.33921329407E+02  0.51100000000E-03 0.  1.
         22    1    1    0    0    0  0.65125146772E+01 -0.21165348839E+02  0.18825943978E+02  0.29065460697E+02  0.00000000000E+00 0. -1.
</event>
<event>
 5    1  0.1096978E-009  0.9118800E+02  0.7818608E-02  0.1130116E+00
         25   -1    0    0    0    0  0.00000000000E+00  0.00000000000E+00  0.99999998245E-14  0.12500000000E+03  0.12500000000E+03 0.  0.
        -11    1    3    3    0    0 -0.19484615915E+02 -0.49191025781E+02  0.28930935394E+02  0.60302622644E+02  0.51100000000E-03 0. -1.
         23    2    1    0    0    0 -0.16748563507E+02 -0.16966108099E+02  0.20072698712E+02  0.93834691768E+02  0.88508038855E+02 0.  0.
         11    1    3    3    0    0  0.27360524079E+01  0.32224917681E+02 -0.88582366820E+01  0.33532069124E+02  0.51100000000E-03 0.  1.
         22    1    1    0    0    0  0.16748563507E+02  0.16966108099E+02 -0.20072698712E+02  0.31165308232E+02  0.00000000000E+00 0. -1.
</event>
<event>
 5    1  0.1096978E-009  0.9118800E+02  0.7818608E-02  0.1130116E+00
         25   -1    0    0    0    0  0.00000000000E+00  0.00000000000E+00  0.99999998245E-14  0.12500000000E+03  0.12500000000E+03 0.  0.
        -11    1    3    3    0    0 -0.30702025564E+02  0.62282823662E+01  0.48029444167E+02  0.57343119746E+02  0.51100000000E-03 0.  1.
         23    2    1    0    0    0 -0.93449824312E+01 -0.14521608962E+02  0.22976972869E+02  0.96257225157E+02  0.91865697021E+02 0.  0.
         11    1    3    3    0    0  0.21357043133E+02 -0.20749891328E+02 -0.25052471298E+02  0.38914105411E+02  0.51100000000E-03 0. -1.
         22    1    1    0    0    0  0.93449824312E+01  0.14521608962E+02 -0.22976972869E+02  0.28742774843E+02  0.00000000000E+00 0. -1.
</event>
<event>
 5    1  0.1096978E-009  0.9118800E+02  0.7818608E-02  0.1130116E+00
         25   -1    0    0    0    0  0.00000000000E+00  0.00000000000E+00  0.99999998245E-14  0.12500000000E+03  0.12500000000E+03 0.  0.
        -11    1    3    3    0    0  0.24623055915E+02  0.37410910888E+02 -0.17386743676E+02  0.48043417780E+02  0.51100000000E-03 0.  1.
         23    2    1    0    0    0  0.21234809808E+02 -0.97834892789E+01 -0.18207580077E+02  0.95366407874E+02  0.90645474065E+02 0.  0.
         11    1    3    3    0    0 -0.33882461075E+01 -0.47194400167E+02 -0.82083640095E+00  0.47322990094E+02  0.51100000000E-03 0. -1.
         22    1    1    0    0    0 -0.21234809808E+02  0.97834892789E+01  0.18207580077E+02  0.29633592126E+02  0.00000000000E+00 0. -1.
</event>
<event>
 5    1  0.1096978E-009  0.9118800E+02  0.7818608E-02  0.1130116E+00
         25   -1    0    0    0    0  0.00000000000E+00  0.00000000000E+00  0.99999998245E-14  0.12500000000E+03  0.12500000000E+03 0.  0.
        -11    1    3    3    0    0 -0.70873093961E+01 -0.43691690111E+02  0.83856532479E+01  0.45050115647E+02  0.51100000000E-03 0.  1.
         23    2    1    0    0    0  0.28477440045E+02 -0.10438372953E+02 -0.10785541639E+01  0.94650576603E+02  0.89652909327E+02 0.  0.
         11    1    3    3    0    0  0.35564749442E+02  0.33253317157E+02 -0.94642074119E+01  0.49600460955E+02  0.51100000000E-03 0. -1.
         22    1    1    0    0    0 -0.28477440045E+02  0.10438372953E+02  0.10785541639E+01  0.30349423397E+02  0.00000000000E+00 0. -1.
</event>
<event>
 5    1  0.1096978E-009  0.9118800E+02  0.7818608E-02  0.1130116E+00
         25   -1    0    0    0    0  0.00000000000E+00  0.00000000000E+00  0.99999998245E-14  0.12500000000E+03  0.12500000000E+03 0.  0.
        -11    1    3    3    0    0  0.53608485988E+02 -0.60553770655E+01 -0.70733968092E+01  0.54411122981E+02  0.51100000000E-03 0. -1.
         23    2    1    0    0    0  0.15731646202E+02  0.31584921561E+01 -0.23361678579E+02  0.96658708729E+02  0.92410373780E+02 0.  0.
         11    1    3    3    0    0 -0.37876839787E+02  0.92138692216E+01 -0.16288281770E+02  0.42247585748E+02  0.51100000000E-03 0.  1.
         22    1    1    0    0    0 -0.15731646202E+02 -0.31584921561E+01  0.23361678579E+02  0.28341291271E+02  0.00000000000E+00 0. -1.
</event>
<event>
 5    1  0.1096978E-009  0.9118800E+02  0.7818608E-02  0.1130116E+00
         25   -1    0    0    0    0  0.00000000000E+00  0.00000000000E+00  0.99999998245E-14  0.12500000000E+03  0.12500000000E+03 0.  0.
        -11    1    3    3    0    0  0.15554278887E+02  0.38233650142E+02 -0.11190903403E+02  0.42766621495E+02  0.51100000000E-03 0. -1.
         23    2    1    0    0    0  0.73693768984E+01  0.53035287878E+01  0.28560567387E+02  0.95030996964E+02  0.90181756698E+02 0.  0.
         11    1    3    3    0    0 -0.81849019889E+01 -0.32930121354E+02  0.39751470790E+02  0.52264375469E+02  0.51100000000E-03 0.  1.
         22    1    1    0    0    0 -0.73693768984E+01 -0.53035287878E+01 -0.28560567387E+02  0.29969003036E+02  0.00000000000E+00 0.  1.
</event>
<event>
 5    1  0.1096978E-009  0.9118800E+02  0.7818608E-02  0.1130116E+00
         25   -1    0    0    0    0  0.00000000000E+00  0.00000000000E+00  0.99999998245E-14  0.12500000000E+03  0.12500000000E+03 0.  0.
        -11    1    3    3    0    0  0.64366511450E+01 -0.30528732410E+02  0.53118747176E+02  0.61603857691E+02  0.51100000000E-03 0. -1.
         23    2    1    0    0    0  0.98472859317E+01 -0.14978239812E+02  0.21473038115E+02  0.97028441696E+02  0.92909151455E+02 0.  0.
         11    1    3    3    0    0  0.34106347867E+01  0.15550492599E+02 -0.31645709061E+02  0.35424584005E+02  0.51100000000E-03 0.  1.
         22    1    1    0    0    0 -0.98472859317E+01  0.14978239812E+02 -0.21473038115E+02  0.27971558304E+02  0.00000000000E+00 0. -1.
</event>
<event>
 5    1  0.1096978E-009  0.9118800E+02  0.7818608E-02  0.1130116E+00
         25   -1    0    0    0    0  0.00000000000E+00  0.00000000000E+00  0.99999998245E-14  0.12500000000E+03  0.12500000000E+03 0.  0.
        -11    1    3    3    0    0  0.72326401409E+01 -0.12773787061E+02  0.31668729561E+02  0.34905431548E+02  0.51100000000E-03 0.  1.
         23    2    1    0    0    0  0.30104930760E+01  0.20011740718E+02 -0.20196496305E+02  0.96409244534E+02  0.92072314696E+02 0.  0.
         11    1    3    3    0    0 -0.42221470648E+01  0.32785527778E+02 -0.51865225865E+02  0.61503812987E+02  0.51100000000E-03 0. -1.
         22    1    1    0    0    0 -0.30104930760E+01 -0.20011740718E+02  0.20196496305E+02  0.28590755466E+02  0.00000000000E+00 0. -1.
</event>
<event>
 5    1  0.1096978E-009  0.9118800E+02  0.7818608E-02  0.1130116E+00
         25   -1    0    0    0    0  0.00000000000E+00  0.00000000000E+00  0.99999998245E-14  0.12500000000E+03  0.12500000000E+03 0.  0.
        -11    1    3    3    0    0 -0.51006551040E+02  0.10291447826E+02 -0.14667478062E+02  0.54062159227E+02  0.51100000000E-03 0. -1.
         23    2    1    0    0    0 -0.20869264016E+02 -0.18217917234E+02 -0.31340304801E+01  0.97120960635E+02  0.93033543191E+02 0.  0.
         11    1    3    3    0    0  0.30137287024E+02 -0.28509365059E+02  0.11533447582E+02  0.43058801408E+02  0.51100000000E-03 0.  1.
         22    1    1    0    0    0  0.20869264016E+02  0.18217917234E+02  0.31340304801E+01  0.27879039365E+02  0.00000000000E+00 0. -1.
</event>
<event>
 5    1  0.1096978E-009  0.9118800E+02  0.7818608E-02  0.1130116E+00
         25   -1    0    0    0    0  0.00000000000E+00  0.00000000000E+00  0.99999998245E-14  0.12500000000E+03  0.12500000000E+03 0.  0.
        -11    1    3    3    0    0 -0.18456130111E+01  0.86396590620E+00  0.54963991543E+02  0.55001755345E+02  0.51100000000E-03 0. -1.
         23    2    1    0    0    0 -0.14115020668E+02  0.16164712642E+02  0.17420462903E+02  0.97359372817E+02  0.93353324549E+02 0.  0.
         11    1    3    3    0    0 -0.12269407657E+02  0.15300746736E+02 -0.37543528640E+02  0.42357617472E+02  0.51100000000E-03 0.  1.
         22    1    1    0    0    0  0.14115020668E+02 -0.16164712642E+02 -0.17420462903E+02  0.27640627183E+02  0.00000000000E+00 0.  1.
</event>
<event>
 5    1  0.1096978E-009  0.9118800E+02  0.7818608E-02  0.1130116E+00
         25   -1    0    0    0    0  0.00000000000E+00  0.00000000000E+00  0.99999998245E-14  0.12500000000E+03  0.12500000000E+03 0.  0.
        -11    1    3    3    0    0 -0.47516338283E+02  0.38457021905E+02 -0.59434659508E+01  0.61417177771E+02  0.51100000000E-03 0.  1.
         23    2    1    0    0    0 -0.24523415513E+02  0.14120051805E+02 -0.96486153911E+01  0.95102348748E+02  0.90280602496E+02 0.  0.
         11    1    3    3    0    0  0.22992922770E+02 -0.24336970100E+02 -0.37051494403E+01  0.33685170977E+02  0.51100000000E-03 0. -1.
         22    1    1    0    0    0  0.24523415513E+02 -0.14120051805E+02  0.96486153911E+01  0.29897651252E+02  0.00000000000E+00 0.  1.
</event>
<event>
 5    1  0.1096978E-009  0.9118800E+02  0.7818608E-02  0.1130116E+00
         25   -1    0    0    0    0  0.00000000000E+00  0.00000000000E+00  0.99999998245E-14  0.12500000000E+03  0.12500000000E+03 0.  0.
        -11    1    3    3    0    0  0.53930738615E+02  0.20157793323E+02  0.16699478805E+02  0.59947758856E+02  0.51100000000E-03 0.  1.
         23    2    1    0    0    0  0.23139956645E+02  0.17030450801E+02 -0.21550688396E+01  0.96187881547E+02  0.91771293915E+02 0.  0.
         11    1    3    3    0    0 -0.30790781969E+02 -0.31273425215E+01 -0.18854547645E+02  0.36240122691E+02  0.51100000000E-03 0. -1.
         22    1    1    0    0    0 -0.23139956645E+02 -0.17030450801E+02  0.21550688396E+01  0.28812118453E+02  0.00000000000E+00 0.  1.
</event>
<event>
 5    1  0.1096978E-009  0.9118800E+02  0.7818608E-02  0.1130116E+00
         25   -1    0    0    0    0  0.00000000000E+00  0.00000000000E+00  0.99999998245E-14  0.12500000000E+03  0.12500000000E+03 0.  0.
        -11    1    3    3    0    0  0.41500371684E+02  0.12335736635E+01 -0.39659839510E+02  0.57416943702E+02  0.51100000000E-03 0.  1.
         23    2    1    0    0    0  0.25658873493E+02  0.15820355874E+02 -0.33751500199E+02  0.79747097169E+02  0.65664102006E+02 0.  0.
         11    1    3    3    0    0 -0.15841498191E+02  0.14586782211E+02  0.59083393110E+01  0.22330153467E+02  0.51100000000E-03 0. -1.
         22    1    1    0    0    0 -0.25658873493E+02 -0.15820355874E+02  0.33751500199E+02  0.45252902831E+02  0.00000000000E+00 0.  1.
</event>
<event>
 5    1  0.1096978E-009  0.9118800E+02  0.7818608E-02  0.1130116E+00
         25   -1    0    0    0    0  0.00000000000E+00  0.00000000000E+00  0.99999998245E-14  0.12500000000E+03  0.12500000000E+03 0.  0.
        -11    1    3    3    0    0  0.77543562517E+01 -0.45835822120E+02 -0.34980301579E+02  0.58177952260E+02  0.51100000000E-03 0. -1.
         23    2    1    0    0    0  0.89385610137E+01 -0.40388134548E+02 -0.11849887509E+02  0.81970717886E+02  0.69768757130E+02 0.  0.
         11    1    3    3    0    0  0.11842047620E+01  0.54476875722E+01  0.23130414071E+02  0.23792765626E+02  0.51100000000E-03 0.  1.
         22    1    1    0    0    0 -0.89385610137E+01  0.40388134548E+02  0.11849887509E+02  0.43029282114E+02  0.00000000000E+00 0. -1.
</event>
<event>
 5    1  0.1096978E-009  0.9118800E+02  0.7818608E-02  0.1130116E+00
         25   -1    0    0    0    0  0.00000000000E+00  0.00000000000E+00  0.99999998245E-14  0.12500000000E+03  0.12500000000E+03 0.  0.
        -11    1    3    3    0    0  0.34436024769E+02  0.99672334073E+01 -0.15046500615E+02  0.38879078239E+02  0.51100000000E-03 0.  1.
         23    2    1    0    0    0 -0.18718046970E+02  0.22995223190E+02 -0.12272992609E+01  0.95324221402E+02  0.90587280290E+02 0.  0.
         11    1    3    3    0    0 -0.53154071740E+02  0.13027989783E+02  0.13819201354E+02  0.56445143162E+02  0.51100000000E-03 0. -1.
         22    1    1    0    0    0  0.18718046970E+02 -0.22995223190E+02  0.12272992609E+01  0.29675778598E+02  0.00000000000E+00 0. -1.
</event>
<event>
 5    1  0.1096978E-009  0.9118800E+02  0.7818608E-02  0.1130116E+00
         25   -1    0    0    0    0  0.00000000000E+00  0.00000000000E+00  0.99999998245E-14  0.12500000000E+03  0.12500000000E+03 0.  0.
        -11    1    3    3    0    0  0.48724519502E+01 -0.59763265174E+02  0.23486732831E+00  0.59962019772E+02  0.51100000000E-03 0. -1.
         23    2    1    0    0    0 -0.14119847444E+01 -0.27124504319E+02 -0.11900167393E+02  0.95346224196E+02  0.90617636523E+02 0.  0.
         11    1    3    3    0    0 -0.62844366946E+01  0.32638760855E+02 -0.12135034721E+02  0.35384204424E+02  0.51100000000E-03 0.  1.
         22    1    1    0    0    0  0.14119847444E+01  0.27124504319E+02  0.11900167393E+02  0.29653775804E+02  0.00000000000E+00 0. -1.
</event>
<event>
 5    1  0.1096978E-009  0.9118800E+02  0.7818608E-02  0.1130116E+00
         25   -1    0    0    0    0  0.00000000000E+00  0.00000000000E+00  0.99999998245E-14  0.12500000000E+03  0.12500000000E+03 0.  0.
        -11    1    3    3    0    0  0.42810412378E+02  0.15361923407E+01 -0.21294538856E+02  0.47838777997E+02  0.51100000000E-03 0.  1.
         23    2    1    0    0    0  0.17243663541E+02  0.62306357550E+01  0.20775134580E+02  0.97291319572E+02  0.93262156811E+02 0.  0.
         11    1    3    3    0    0 -0.25566748836E+02  0.46944434143E+01  0.42069673436E+02  0.49452541575E+02  0.51100000000E-03 0. -1.
         22    1    1    0    0    0 -0.17243663541E+02 -0.62306357550E+01 -0.20775134580E+02  0.27708680428E+02  0.00000000000E+00 0.  1.
</event>
<event>
 5    1  0.1096978E-009  0.9118800E+02  0.7818608E-02  0.1130116E+00
         25   -1    0    0    0    0  0.00000000000E+00  0.00000000000E+00  0.99999998245E-14  0.12500000000E+03  0.12500000000E+03 0.  0.
        -11    1    3    3    0    0 -0.42856452159E+02  0.29041023061E+02  0.57183890232E+01  0.52084128920E+02  0.51100000000E-03 0.  1.
         23    2    1    0    0    0 -0.25340944466E+02 -0.75420953114E+01 -0.11525527539E+02  0.96157592799E+02  0.91730028888E+02 0.  0.
         11    1    3    3    0    0  0.17515507693E+02 -0.36583118373E+02 -0.17243916562E+02  0.44073463879E+02  0.51100000000E-03 0. -1.
         22    1    1    0    0    0  0.25340944466E+02  0.75420953114E+01  0.11525527539E+02  0.28842407201E+02  0.00000000000E+00 0.  1.
</event>
<event>
 5    1  0.1096978E-009  0.9118800E+02  0.7818608E-02  0.1130116E+00
         25   -1    0    0    0    0  0.00000000000E+00  0.00000000000E+00  0.99999998245E-14  0.12500000000E+03  0.12500000000E+03 0.  0.
        -11    1    3    3    0    0 -0.38895266675E+02 -0.29672507834E+01  0.34693309448E+02  0.52204138415E+02  0.51100000000E-03 0. -1.
         23    2    1    0    0    0  0.40958207417E+01 -0.58099681645E+01  0.28372817739E+02  0.95750243351E+02  0.91173246282E+02 0.  0.
         11    1    3    3    0    0  0.42991087417E+02 -0.28427173811E+01 -0.63204917094E+01  0.43546104936E+02  0.51100000000E-03 0.  1.
         22    1    1    0    0    0 -0.40958207417E+01  0.58099681645E+01 -0.28372817739E+02  0.29249756649E+02  0.00000000000E+00 0. -1.
</event>
<event>
 5    1  0.1096978E-009  0.9118800E+02  0.7818608E-02  0.1130116E+00
         25   -1    0    0    0    0  0.00000000000E+00  0.00000000000E+00  0.99999998245E-14  0.12500000000E+03  0.12500000000E+03 0.  0.
        -11    1    3    3    0    0  0.21225303235E+02  0.26923002868E+02 -0.12526023063E+02  0.36500175820E+02  0.51100000000E-03 0. -1.
         23    2    1    0    0    0  0.75868793226E+00 -0.18894051388E+02  0.20916275818E+02  0.96803344536E+02  0.92605810477E+02 0.  0.
         11    1    3    3    0    0 -0.20466615303E+02 -0.45817054256E+02  0.33442298881E+02  0.60303168717E+02  0.51100000000E-03 0.  1.
         22    1    1    0    0    0 -0.75868793226E+00  0.18894051388E+02 -0.20916275818E+02  0.28196655464E+02  0.00000000000E+00 0.  1.
</event>
<event>
 5    1  0.1096978E-009  0.9118800E+02  0.7818608E-02  0.1130116E+00
         25   -1    0    0    0    0  0.00000000000E+00  0.00000000000E+00  0.99999998245E-14  0.12500000000E+03  0.12500000000E+03 0.  0.
        -11    1    3    3    0    0  0.35808104568E+02  0.23989961023E+02 -0.19004722570E+02  0.47105393140E+02  0.51100000000E-03 0.  1.
         23    2    1    0    0    0 -0.12448146883E+02  0.22631390944E+02 -0.13949838309E+02  0.95644690332E+02  0.91028416349E+02 0.  0.
         11    1    3    3    0    0 -0.48256251451E+02 -0.13585700790E+01  0.50548842603E+01  0.48539297192E+02  0.51100000000E-03 0. -1.
         22    1    1    0    0    0  0.12448146883E+02 -0.22631390944E+02  0.13949838309E+02  0.29355309668E+02  0.00000000000E+00 0.  1.
</event>
<event>
 5    1  0.1096978E-009  0.9118800E+02  0.7818608E-02  0.1130116E+00
         25   -1    0    0    0    0  0.00000000000E+00  0.00000000000E+00  0.99999998245E-14  0.12500000000E+03  0.12500000000E+03 0.  0.
        -11    1    3    3    0    0  0.52079191109E+02  0.21772753177E+02 -0.80679329208E+01  0.57020930099E+02  0.51100000000E-03 0.  1.
         23    2    1    0    0    0  0.15101087424E+02  0.25966847011E+02 -0.64822645001E+01  0.94269888739E+02  0.89120548611E+02 0.  0.
         11    1    3    3    0    0 -0.36978103684E+02  0.41940938335E+01  0.15856684206E+01  0.37248958640E+02  0.51100000000E-03 0. -1.
         22    1    1    0    0    0 -0.15101087424E+02 -0.25966847011E+02  0.64822645001E+01  0.30730111261E+02  0.00000000000E+00 0.  1.
</event>
<event>
 5    1  0.1096978E-009  0.9118800E+02  0.7818608E-02  0.1130116E+00
         25   -1    0    0    0    0  0.00000000000E+00  0.00000000000E+00  0.99999998245E-14  0.12500000000E+03  0.12500000000E+03 0.  0.
        -11    1    3    3    0    0 -0.18794665689E+02 -0.15946597405E+02  0.23168606307E+02  0.33827765897E+02  0.51100000000E-03 0.  1.
         23    2    1    0    0    0  0.14777354304E+02  0.11636381523E+02 -0.21697633638E+02  0.96284797047E+02  0.91903205938E+02 0.  0.
         11    1    3    3    0    0  0.33572019992E+02  0.27582978928E+02 -0.44866239945E+02  0.62457031149E+02  0.51100000000E-03 0. -1.
         22    1    1    0    0    0 -0.14777354304E+02 -0.11636381523E+02  0.21697633638E+02  0.28715202953E+02  0.00000000000E+00 0. -1.
</event>
<event>
 5    1  0.1096978E-009  0.9118800E+02  0.7818608E-02  0.1130116E+00
         25   -1    0    0    0    0  0.00000000000E+00  0.00000000000E+00  0.99999998245E-14  0.12500000000E+03  0.12500000000E+03 0.  0.
        -11    1    3    3    0    0 -0.51391542464E+02  0.13803811738E+02 -0.25011607575E+02  0.58798098345E+02  0.51100000000E-03 0. -1.
         23    2    1    0    0    0 -0.15320723490E+02  0.17889417353E+02 -0.16944101671E+02  0.95985203724E+02  0.91494813683E+02 0.  0.
         11    1    3    3    0    0  0.36070818973E+02  0.40856056152E+01  0.80675059036E+01  0.37187105378E+02  0.51100000000E-03 0.  1.
         22    1    1    0    0    0  0.15320723490E+02 -0.17889417353E+02  0.16944101671E+02  0.29014796276E+02  0.00000000000E+00 0. -1.
</event>
<event>
 5    1  0.1096978E-009  0.9118800E+02  0.7818608E-02  0.1130116E+00
         25   -1    0    0    0    0  0.00000000000E+00  0.00000000000E+00  0.99999998245E-14  0.12500000000E+03  0.12500000000E+03 0.  0.
        -11    1    3    3    0    0 -0.35440898744E+02  0.11996672529E+02  0.11541821138E+02  0.39155984102E+02  0.51100000000E-03 0.  1.
         23    2    1    0    0    0 -0.18952622386E+02 -0.11893621557E+02 -0.28595989938E+02  0.88690348810E+02  0.80917162595E+02 0.  0.
         11    1    3    3    0    0  0.16488276358E+02 -0.23890294086E+02 -0.40137811075E+02  0.49534364708E+02  0.51100000000E-03 0. -1.
         22    1    1    0    0    0  0.18952622386E+02  0.11893621557E+02  0.28595989938E+02  0.36309651190E+02  0.00000000000E+00 0. -1.
</event>
<event>
 5    1  0.1096978E-009  0.9118800E+02  0.7818608E-02  0.1130116E+00
         25   -1    0    0    0    0  0.00000000000E+00  0.00000000000E+00  0.99999998245E-14  0.12500000000E+03  0.12500000000E+03 0.  0.
        -11    1    3    3    0    0 -0.38477592484E+02 -0.41513055197E+02  0.21097017244E+02  0.60406481539E+02  0.51100000000E-03 0. -1.
         23    2    1    0    0    0 -0.18197262334E+02 -0.12114660348E+02  0.18751800117E+02  0.96198344502E+02  0.91785544207E+02 0.  0.
         11    1    3    3    0    0  0.20280330150E+02  0.29398394849E+02 -0.23452171261E+01  0.35791862962E+02  0.51100000000E-03 0.  1.
         22    1    1    0    0    0  0.18197262334E+02  0.12114660348E+02 -0.18751800117E+02  0.28801655498E+02  0.00000000000E+00 0. -1.
</event>
<event>
 5    1  0.1096978E-009  0.9118800E+02  0.7818608E-02  0.1130116E+00
         25   -1    0    0    0    0  0.00000000000E+00  0.00000000000E+00  0.99999998245E-14  0.12500000000E+03  0.12500000000E+03 0.  0.
        -11    1    3    3    0    0  0.19228301996E+02  0.33527467668E+02 -0.39351862715E+02  0.55157844277E+02  0.51100000000E-03 0.  1.
         23    2    1    0    0    0  0.12988697351E+02 -0.39767937226E+01 -0.26377200140E+02  0.95330523523E+02  0.90595976074E+02 0.  0.
         11    1    3    3    0    0 -0.62396046450E+01 -0.37504261391E+02  0.12974662575E+02  0.40172679246E+02  0.51100000000E-03 0. -1.
         22    1    1    0    0    0 -0.12988697351E+02  0.39767937226E+01  0.26377200140E+02  0.29669476477E+02  0.00000000000E+00 0.  1.
</event>
<event>
 5    1  0.1096978E-009  0.9118800E+02  0.7818608E-02  0.1130116E+00
         25   -1    0    0    0    0  0.00000000000E+00  0.00000000000E+00  0.99999998245E-14  0.12500000000E+03  0.12500000000E+03 0.  0.
        -11    1    3    3    0    0  0.12721194460E+02 -0.24365311129E+02 -0.13912377155E+02  0.30806678063E+02  0.51100000000E-03 0. -1.
         23    2    1    0    0    0  0.26208366395E+02  0.24697356338E+02  0.10842394956E+02  0.87391551380E+02  0.78885282817E+02 0.  0.
         11    1    3    3    0    0  0.13487171936E+02  0.49062667467E+02  0.24754772111E+02  0.56584873317E+02  0.51100000000E-03 0.  1.
         22    1    1    0    0    0 -0.26208366395E+02 -0.24697356338E+02 -0.10842394956E+02  0.37608448620E+02  0.00000000000E+00 0.  1.
</event>
<event>
 5    1  0.1096978E-009  0.9118800E+02  0.7818608E-02  0.1130116E+00
         25   -1    0    0    0    0  0.00000000000E+00  0.00000000000E+00  0.99999998245E-14  0.12500000000E+03  0.12500000000E+03 0.  0.
        -11    1    3    3    0    0 -0.28305877863E+02 -0.22218118588E+02 -0.17130066608E+01  0.36025017796E+02  0.51100000000E-03 0. -1.
         23    2    1    0    0    0  0.46595100124E+01  0.28237470313E+02 -0.21901766013E+01  0.96296992548E+02  0.91919791868E+02 0.  0.
         11    1    3    3    0    0  0.32965387875E+02  0.50455588901E+02 -0.47716994052E+00  0.60271974752E+02  0.51100000000E-03 0.  1.
         22    1    1    0    0    0 -0.46595100124E+01 -0.28237470313E+02  0.21901766013E+01  0.28703007452E+02  0.00000000000E+00 0.  1.
</event>
<event>
 5    1  0.1096978E-009  0.9118800E+02  0.7818608E-02  0.1130116E+00
         25   -1    0    0    0    0  0.00000000000E+00  0.00000000000E+00  0.99999998245E-14  0.12500000000E+03  0.12500000000E+03 0.  0.
        -11    1    3    3    0    0  0.71968500050E+01 -0.32248734036E+02 -0.17963463697E+01  0.33090819836E+02  0.51100000000E-03 0. -1.
         23    2    1    0    0    0 -0.67564935313E-01  0.29553140674E+02 -0.26901945728E+01  0.95324592074E+02  0.90587791774E+02 0.  0.
         11    1    3    3    0    0 -0.72644149403E+01  0.61801874710E+02 -0.89384820308E+00  0.62233772238E+02  0.51100000000E-03 0.  1.
         22    1    1    0    0    0  0.67564935313E-01 -0.29553140674E+02  0.26901945728E+01  0.29675407926E+02  0.00000000000E+00 0.  1.
</event>
<event>
 5    1  0.1096978E-009  0.9118800E+02  0.7818608E-02  0.1130116E+00
         25   -1    0    0    0    0  0.00000000000E+00  0.00000000000E+00  0.99999998245E-14  0.12500000000E+03  0.12500000000E+03 0.  0.
        -11    1    3    3    0    0 -0.32496723747E+02 -0.42212731678E+02 -0.12658509222E+02  0.54755726878E+02  0.51100000000E-03 0.  1.
         23    2    1    0    0    0  0.20547811362E+01 -0.18185875191E+02 -0.20451193713E+02  0.97555519566E+02  0.93615596412E+02 0.  0.
         11    1    3    3    0    0  0.34551504883E+02  0.24026856486E+02 -0.77926844904E+01  0.42799792688E+02  0.51100000000E-03 0. -1.
         22    1    1    0    0    0 -0.20547811362E+01  0.18185875191E+02  0.20451193713E+02  0.27444480434E+02  0.00000000000E+00 0.  1.
</event>
<event>
 5    1  0.1096978E-009  0.9118800E+02  0.7818608E-02  0.1130116E+00
         25   -1    0    0    0    0  0.00000000000E+00  0.00000000000E+00  0.99999998245E-14  0.12500000000E+03  0.12500000000E+03 0.  0.
        -11    1    3    3    0    0 -0.93797363441E+01  0.53895993574E+02 -0.10451917078E+02  0.55695602592E+02  0.51100000000E-03 0.  1.
         23    2    1    0    0    0  0.83198176748E+01  0.19039735602E+02 -0.20238220849E+02  0.95994543943E+02  0.91507573379E+02 0.  0.
         11    1    3    3    0    0  0.17699554019E+02 -0.34856257972E+02 -0.97863037709E+01  0.40298941351E+02  0.51100000000E-03 0. -1.
         22    1    1    0    0    0 -0.83198176748E+01 -0.19039735602E+02  0.20238220849E+02  0.29005456057E+02  0.00000000000E+00 0.  1.
</event>
<event>
 5    1  0.1096978E-009  0.9118800E+02  0.7818608E-02  0.1130116E+00
         25   -1    0    0    0    0  0.00000000000E+00  0.00000000000E+00  0.99999998245E-14  0.12500000000E+03  0.12500000000E+03 0.  0.
        -11    1    3    3    0    0 -0.18768864985E+02  0.39805983638E+02  0.26235918674E+02  0.51235827847E+02  0.51100000000E-03 0.  1.
         23    2    1    0    0    0  0.51701827761E+01  0.21424759785E+02 -0.11965599173E+02  0.99921589258E+02  0.96723302851E+02 0.  0.
         11    1    3    3    0    0  0.23939047761E+02 -0.18381223853E+02 -0.38201517847E+02  0.48685761411E+02  0.51100000000E-03 0. -1.
         22    1    1    0    0    0 -0.51701827761E+01 -0.21424759785E+02  0.11965599173E+02  0.25078410742E+02  0.00000000000E+00 0. -1.
</event>
<event>
 5    1  0.1096978E-009  0.9118800E+02  0.7818608E-02  0.1130116E+00
         25   -1    0    0    0    0  0.00000000000E+00  0.00000000000E+00  0.99999998245E-14  0.12500000000E+03  0.12500000000E+03 0.  0.
        -11    1    3    3    0    0 -0.33731026084E+02  0.15306213813E+01 -0.44894339520E+02  0.56174964563E+02  0.51100000000E-03 0. -1.
         23    2    1    0    0    0 -0.16015851718E+02  0.19067534626E+01 -0.48176272726E+02  0.74195507395E+02  0.54072884598E+02 0.  0.
         11    1    3    3    0    0  0.17715174365E+02  0.37613208131E+00 -0.32819332067E+01  0.18020542832E+02  0.51100000000E-03 0.  1.
         22    1    1    0    0    0  0.16015851718E+02 -0.19067534626E+01  0.48176272726E+02  0.50804492605E+02  0.00000000000E+00 0. -1.
</event>
<event>
 5    1  0.1096978E-009  0.9118800E+02  0.7818608E-02  0.1130116E+00
         25   -1    0    0    0    0  0.00000000000E+00  0.00000000000E+00  0.99999998245E-14  0.12500000000E+03  0.12500000000E+03 0.  0.
        -11    1    3    3    0    0  0.19249589820E+02  0.35089197655E+02 -0.25669062296E+01  0.40104706808E+02  0.51100000000E-03 0.  1.
         23    2    1    0    0    0 -0.11137021532E+02 -0.53200627970E+01 -0.26292895818E+02  0.95954300021E+02  0.91452583371E+02 0.  0.
         11    1    3    3    0    0 -0.30386611352E+02 -0.40409260452E+02 -0.23725989589E+02  0.55849593212E+02  0.51100000000E-03 0. -1.
         22    1    1    0    0    0  0.11137021532E+02  0.53200627970E+01  0.26292895818E+02  0.29045699979E+02  0.00000000000E+00 0. -1.
</event>
<event>
 5    1  0.1096978E-009  0.9118800E+02  0.7818608E-02  0.1130116E+00
         25   -1    0    0    0    0  0.00000000000E+00  0.00000000000E+00  0.99999998245E-14  0.12500000000E+03  0.12500000000E+03 0.  0.
        -11    1    3    3    0    0 -0.92693020982E+01 -0.12217088998E+02  0.28572895989E+02  0.32428191599E+02  0.51100000000E-03 0.  1.
         23    2    1    0    0    0  0.78557400536E+01  0.26100274224E+02 -0.15791269663E+02  0.93499187884E+02  0.88032931174E+02 0.  0.
         11    1    3    3    0    0  0.17125042152E+02  0.38317363222E+02 -0.44364165652E+02  0.61070996285E+02  0.51100000000E-03 0. -1.
         22    1    1    0    0    0 -0.78557400536E+01 -0.26100274224E+02  0.15791269663E+02  0.31500812116E+02  0.00000000000E+00 0. -1.
</event>
<event>
 5    1  0.1096978E-009  0.9118800E+02  0.7818608E-02  0.1130116E+00
         25   -1    0    0    0    0  0.00000000000E+00  0.00000000000E+00  0.99999998245E-14  0.12500000000E+03  0.12500000000E+03 0.  0.
        -11    1    3    3    0    0 -0.40743973822E+02 -0.25772912627E+02  0.25212186439E+02  0.54405595056E+02  0.51100000000E-03 0.  1.
         23    2    1    0    0    0 -0.88351363084E+01 -0.29198914937E+02  0.12297699932E+01  0.94468891253E+02  0.89399232732E+02 0.  0.
         11    1    3    3    0    0  0.31908837513E+02 -0.34260023102E+01 -0.23982416446E+02  0.40063296197E+02  0.51100000000E-03 0. -1.
         22    1    1    0    0    0  0.88351363084E+01  0.29198914937E+02 -0.12297699932E+01  0.30531108747E+02  0.00000000000E+00 0.  1.
</event>
<event>
 5    1  0.1096978E-009  0.9118800E+02  0.7818608E-02  0.1130116E+00
         25   -1    0    0    0    0  0.00000000000E+00  0.00000000000E+00  0.99999998245E-14  0.12500000000E+03  0.12500000000E+03 0.  0.
        -11    1    3    3    0    0 -0.96739258780E+01  0.72149989199E+01  0.35711621146E+02  0.37695635509E+02  0.51100000000E-03 0.  1.
         23    2    1    0    0    0  0.12426049696E+02  0.64719653248E+01 -0.21672745554E+02  0.99193005869E+02  0.95777092602E+02 0.  0.
         11    1    3    3    0    0  0.22099975574E+02 -0.74303359515E+00 -0.57384366701E+02  0.61497370360E+02  0.51100000000E-03 0. -1.
         22    1    1    0    0    0 -0.12426049696E+02 -0.64719653248E+01  0.21672745554E+02  0.25806994131E+02  0.00000000000E+00 0. -1.
</event>
<event>
 5    1  0.1096978E-009  0.9118800E+02  0.7818608E-02  0.1130116E+00
         25   -1    0    0    0    0  0.00000000000E+00  0.00000000000E+00  0.99999998245E-14  0.12500000000E+03  0.12500000000E+03 0.  0.
        -11    1    3    3    0    0 -0.86483247388E+01  0.34286102723E+02 -0.13506078911E+02  0.37851611967E+02  0.51100000000E-03 0.  1.
         23    2    1    0    0    0  0.23470144978E+02 -0.57050991356E+01  0.15034355767E+02  0.96549556862E+02  0.92262610063E+02 0.  0.
         11    1    3    3    0    0  0.32118469716E+02 -0.39991201859E+02  0.28540434678E+02  0.58697944895E+02  0.51100000000E-03 0. -1.
         22    1    1    0    0    0 -0.23470144978E+02  0.57050991356E+01 -0.15034355767E+02  0.28450443138E+02  0.00000000000E+00 0. -1.
</event>
<event>
 5    1  0.1096978E-009  0.9118800E+02  0.7818608E-02  0.1130116E+00
         25   -1    0    0    0    0  0.00000000000E+00  0.00000000000E+00  0.99999998245E-14  0.12500000000E+03  0.12500000000E+03 0.  0.
        -11    1    3    3    0    0 -0.16149740535E+02 -0.35582170970E+02 -0.24728511231E+01  0.39153799346E+02  0.51100000000E-03 0. -1.
         23    2    1    0    0    0 -0.13684631144E+02  0.20246691164E+02 -0.14867509473E+02  0.96395097089E+02  0.92053105717E+02 0.  0.
         11    1    3    3    0    0  0.24651093908E+01  0.55828862134E+02 -0.12394658350E+02  0.57241297743E+02  0.51100000000E-03 0.  1.
         22    1    1    0    0    0  0.13684631144E+02 -0.20246691164E+02  0.14867509473E+02  0.28604902911E+02  0.00000000000E+00 0.  1.
</event>
<event>
 5    1  0.1096978E-009  0.9118800E+02  0.7818608E-02  0.1130116E+00
         25   -1    0    0    0    0  0.00000000000E+00  0.00000000000E+00  0.99999998245E-14  0.12500000000E+03  0.12500000000E+03 0.  0.
        -11    1    3    3    0    0 -0.13888222128E+02  0.52540956712E+02 -0.28391896732E+02  0.61315044209E+02  0.51100000000E-03 0. -1.
         23    2    1    0    0    0 -0.37384092511E+01  0.21285440507E+02 -0.20719444868E+02  0.95061044158E+02  0.90223395189E+02 0.  0.
         11    1    3    3    0    0  0.10149812877E+02 -0.31255516205E+02  0.76724518643E+01  0.33745999948E+02  0.51100000000E-03 0.  1.
         22    1    1    0    0    0  0.37384092511E+01 -0.21285440507E+02  0.20719444868E+02  0.29938955842E+02  0.00000000000E+00 0. -1.
</event>
<event>
 5    1  0.1096978E-009  0.9118800E+02  0.7818608E-02  0.1130116E+00
         25   -1    0    0    0    0  0.00000000000E+00  0.00000000000E+00  0.99999998245E-14  0.12500000000E+03  0.12500000000E+03 0.  0.
        -11    1    3    3    0    0 -0.20522750045E+02  0.30128255466E+02  0.85080446661E+01  0.37433699672E+02  0.51100000000E-03 0. -1.
         23    2    1    0    0    0  0.24114765803E+02 -0.77924943241E+01  0.13624664090E+02  0.96227159175E+02  0.91824777668E+02 0.  0.
         11    1    3    3    0    0  0.44637515849E+02 -0.37920749790E+02  0.51166194244E+01  0.58793459503E+02  0.51100000000E-03 0.  1.
         22    1    1    0    0    0 -0.24114765803E+02  0.77924943241E+01 -0.13624664090E+02  0.28772840825E+02  0.00000000000E+00 0.  1.
</event>
<event>
 5    1  0.1096978E-009  0.9118800E+02  0.7818608E-02  0.1130116E+00
         25   -1    0    0    0    0  0.00000000000E+00  0.00000000000E+00  0.99999998245E-14  0.12500000000E+03  0.12500000000E+03 0.  0.
        -11    1    3    3    0    0  0.12375451330E+02 -0.26913524066E+02 -0.13353121367E+02  0.32493005767E+02  0.51100000000E-03 0. -1.
         23    2    1    0    0    0  0.27613699728E+02  0.22110438621E+02 -0.20166067248E+02  0.84280739485E+02  0.73791495927E+02 0.  0.
         11    1    3    3    0    0  0.15238248398E+02  0.49023962687E+02 -0.68129458814E+01  0.51787733718E+02  0.51100000000E-03 0.  1.
         22    1    1    0    0    0 -0.27613699728E+02 -0.22110438621E+02  0.20166067248E+02  0.40719260515E+02  0.00000000000E+00 0.  1.
</event>
<event>
 5    1  0.1096978E-009  0.9118800E+02  0.7818608E-02  0.1130116E+00
         25   -1    0    0    0    0  0.00000000000E+00  0.00000000000E+00  0.99999998245E-14  0.12500000000E+03  0.12500000000E+03 0.  0.
        -11    1    3    3    0    0 -0.21181833455E+02 -0.57814165294E+02 -0.45731345607E+01  0.61741892886E+02  0.51100000000E-03 0.  1.
         23    2    1    0    0    0 -0.18481864155E+02 -0.30634694961E+02 -0.27991858124E+01  0.89112686376E+02  0.81566976123E+02 0.  0.
         11    1    3    3    0    0  0.26999693005E+01  0.27179470334E+02  0.17739487482E+01  0.27370793490E+02  0.51100000000E-03 0. -1.
         22    1    1    0    0    0  0.18481864155E+02  0.30634694961E+02  0.27991858124E+01  0.35887313624E+02  0.00000000000E+00 0.  1.
</event>
<event>
 5    1  0.1096978E-009  0.9118800E+02  0.7818608E-02  0.1130116E+00
         25   -1    0    0    0    0  0.00000000000E+00  0.00000000000E+00  0.99999998245E-14  0.12500000000E+03  0.12500000000E+03 0.  0.
        -11    1    3    3    0    0 -0.10507065708E+02 -0.14835446009E+01  0.32903491927E+02  0.34572230412E+02  0.51100000000E-03 0. -1.
         23    2    1    0    0    0 -0.12965476256E+02  0.76979758319E+01 -0.26380991578E+02  0.94613833360E+02  0.89601664829E+02 0.  0.
         11    1    3    3    0    0 -0.24584105475E+01  0.91815204328E+01 -0.59284483505E+02  0.60041602948E+02  0.51100000000E-03 0.  1.
         22    1    1    0    0    0  0.12965476256E+02 -0.76979758319E+01  0.26380991578E+02  0.30386166640E+02  0.00000000000E+00 0.  1.
</event>
<event>
 5    1  0.1096978E-009  0.9118800E+02  0.7818608E-02  0.1130116E+00
         25   -1    0    0    0    0  0.00000000000E+00  0.00000000000E+00  0.99999998245E-14  0.12500000000E+03  0.12500000000E+03 0.  0.
        -11    1    3    3    0    0 -0.21774886574E+02  0.21391558473E+02  0.45161137849E+02  0.54509382965E+02  0.51100000000E-03 0.  1.
         23    2    1    0    0    0 -0.25563263161E+02 -0.53157539126E+01  0.15354355356E+02  0.94709838372E+02  0.89735497953E+02 0.  0.
         11    1    3    3    0    0 -0.37883765869E+01 -0.26707312385E+02 -0.29806782493E+02  0.40200455406E+02  0.51100000000E-03 0. -1.
         22    1    1    0    0    0  0.25563263161E+02  0.53157539126E+01 -0.15354355356E+02  0.30290161628E+02  0.00000000000E+00 0.  1.
</event>
<event>
 5    1  0.1096978E-009  0.9118800E+02  0.7818608E-02  0.1130116E+00
         25   -1    0    0    0    0  0.00000000000E+00  0.00000000000E+00  0.99999998245E-14  0.12500000000E+03  0.12500000000E+03 0.  0.
        -11    1    3    3    0    0 -0.77262959873E+01 -0.16239324352E+02  0.50898582339E+02  0.53982191411E+02  0.51100000000E-03 0.  1.
         23    2    1    0    0    0 -0.24260509350E+02 -0.68435927323E+01  0.12430376070E+02  0.96894460962E+02  0.92728718531E+02 0.  0.
         11    1    3    3    0    0 -0.16534213362E+02  0.93957316194E+01 -0.38468206270E+02  0.42912269551E+02  0.51100000000E-03 0. -1.
         22    1    1    0    0    0  0.24260509350E+02  0.68435927323E+01 -0.12430376070E+02  0.28105539038E+02  0.00000000000E+00 0. -1.
</event>
<event>
 5    1  0.1096978E-009  0.9118800E+02  0.7818608E-02  0.1130116E+00
         25   -1    0    0    0    0  0.00000000000E+00  0.00000000000E+00  0.99999998245E-14  0.12500000000E+03  0.12500000000E+03 0.  0.
        -11    1    3    3    0    0 -0.56591466778E+01  0.12860920523E+02  0.43523822648E+02  0.45735679245E+02  0.51100000000E-03 0. -1.
         23    2    1    0    0    0 -0.69586261867E+00 -0.26351127545E+02  0.13413661488E+02  0.95423109322E+02  0.90723631598E+02 0.  0.
         11    1    3    3    0    0  0.49632840591E+01 -0.39212048068E+02 -0.30110161160E+02  0.49687430077E+02  0.51100000000E-03 0.  1.
         22    1    1    0    0    0  0.69586261867E+00  0.26351127545E+02 -0.13413661488E+02  0.29576890678E+02  0.00000000000E+00 0.  1.
</event>
<event>
 5    1  0.1096978E-009  0.9118800E+02  0.7818608E-02  0.1130116E+00
         25   -1    0    0    0    0  0.00000000000E+00  0.00000000000E+00  0.99999998245E-14  0.12500000000E+03  0.12500000000E+03 0.  0.
        -11    1    3    3    0    0 -0.45205905956E+02  0.20881751375E+02  0.14771436177E+02  0.51940512135E+02  0.51100000000E-03 0. -1.
         23    2    1    0    0    0 -0.23152544425E+02 -0.16169738709E+02  0.84737641521E+01  0.95516013801E+02  0.90851546218E+02 0.  0.
         11    1    3    3    0    0  0.22053361531E+02 -0.37051490084E+02 -0.62976720250E+01  0.43575501666E+02  0.51100000000E-03 0.  1.
         22    1    1    0    0    0  0.23152544425E+02  0.16169738709E+02 -0.84737641521E+01  0.29483986199E+02  0.00000000000E+00 0. -1.
</event>
<event>
 5    1  0.1096978E-009  0.9118800E+02  0.7818608E-02  0.1130116E+00
         25   -1    0    0    0    0  0.00000000000E+00  0.00000000000E+00  0.99999998245E-14  0.12500000000E+03  0.12500000000E+03 0.  0.
        -11    1    3    3    0    0  0.17656479857E+02  0.16309960129E+02  0.23332374340E+02  0.33498742856E+02  0.51100000000E-03 0.  1.
         23    2    1    0    0    0 -0.36331672070E+00 -0.87857334419E+01 -0.29234131921E+02  0.94472052471E+02  0.89403652709E+02 0.  0.
         11    1    3    3    0    0 -0.18019796577E+02 -0.25095693571E+02 -0.52566506262E+02  0.60973309614E+02  0.51100000000E-03 0. -1.
         22    1    1    0    0    0  0.36331672070E+00  0.87857334419E+01  0.29234131921E+02  0.30527947529E+02  0.00000000000E+00 0. -1.
</event>
<event>
 5    1  0.1096978E-009  0.9118800E+02  0.7818608E-02  0.1130116E+00
         25   -1    0    0    0    0  0.00000000000E+00  0.00000000000E+00  0.99999998245E-14  0.12500000000E+03  0.12500000000E+03 0.  0.
        -11    1    3    3    0    0 -0.40564367485E+02 -0.28509728886E+02 -0.10185130217E+01  0.49591429901E+02  0.51100000000E-03 0.  1.
         23    2    1    0    0    0 -0.16276911668E+02  0.52706741610E+00  0.24741332969E+02  0.95379918795E+02  0.90664103695E+02 0.  0.
         11    1    3    3    0    0  0.24287455817E+02  0.29036796302E+02  0.25759845991E+02  0.45788488894E+02  0.51100000000E-03 0. -1.
         22    1    1    0    0    0  0.16276911668E+02 -0.52706741610E+00 -0.24741332969E+02  0.29620081205E+02  0.00000000000E+00 0. -1.
</event>
<event>
 5    1  0.1096978E-009  0.9118800E+02  0.7818608E-02  0.1130116E+00
         25   -1    0    0    0    0  0.00000000000E+00  0.00000000000E+00  0.99999998245E-14  0.12500000000E+03  0.12500000000E+03 0.  0.
        -11    1    3    3    0    0  0.36643082486E+02 -0.20839525245E+02 -0.20354252510E+01  0.42203604855E+02  0.51100000000E-03 0.  1.
         23    2    1    0    0    0  0.11015412983E+02  0.25416557516E+02  0.82940889456E+01  0.96084041939E+02  0.91629746724E+02 0.  0.
         11    1    3    3    0    0 -0.25627669503E+02  0.46256082761E+02  0.10329514197E+02  0.53880437084E+02  0.51100000000E-03 0. -1.
         22    1    1    0    0    0 -0.11015412983E+02 -0.25416557516E+02 -0.82940889456E+01  0.28915958061E+02  0.00000000000E+00 0.  1.
</event>
<event>
 5    1  0.1096978E-009  0.9118800E+02  0.7818608E-02  0.1130116E+00
         25   -1    0    0    0    0  0.00000000000E+00  0.00000000000E+00  0.99999998245E-14  0.12500000000E+03  0.12500000000E+03 0.  0.
        -11    1    3    3    0    0 -0.43857381700E+02 -0.26406999634E+02  0.13340006376E+02  0.52903263884E+02  0.51100000000E-03 0. -1.
         23    2    1    0    0    0 -0.78460153303E+00 -0.27210355953E+02  0.95574779383E+01  0.96149272883E+02  0.91718690684E+02 0.  0.
         11    1    3    3    0    0  0.43072780167E+02 -0.80335631875E+00 -0.37825284380E+01  0.43246008999E+02  0.51100000000E-03 0.  1.
         22    1    1    0    0    0  0.78460153303E+00  0.27210355953E+02 -0.95574779383E+01  0.28850727117E+02  0.00000000000E+00 0. -1.
</event>
<event>
 5    1  0.1096978E-009  0.9118800E+02  0.7818608E-02  0.1130116E+00
         25   -1    0    0    0    0  0.00000000000E+00  0.00000000000E+00  0.99999998245E-14  0.12500000000E+03  0.12500000000E+03 0.  0.
        -11    1    3    3    0    0 -0.98945242420E+01 -0.18410718051E+02  0.25250603654E+02  0.32778790922E+02  0.51100000000E-03 0.  1.
         23    2    1    0    0    0 -0.26217592560E+01  0.13902202680E+02 -0.26927986628E+02  0.94581891498E+02  0.89557092821E+02 0.  0.
         11    1    3    3    0    0  0.72727649860E+01  0.32312920731E+02 -0.52178590283E+02  0.61803100577E+02  0.51100000000E-03 0. -1.
         22    1    1    0    0    0  0.26217592560E+01 -0.13902202680E+02  0.26927986628E+02  0.30418108502E+02  0.00000000000E+00 0. -1.
</event>
<event>
 5    1  0.1096978E-009  0.9118800E+02  0.7818608E-02  0.1130116E+00
         25   -1    0    0    0    0  0.00000000000E+00  0.00000000000E+00  0.99999998245E-14  0.12500000000E+03  0.12500000000E+03 0.  0.
        -11    1    3    3    0    0 -0.17368646111E+01 -0.24698609972E+01 -0.37909138329E+02  0.38029195116E+02  0.51100000000E-03 0.  1.
         23    2    1    0    0    0 -0.16084830424E+02 -0.17913550609E+02  0.16120882838E+02  0.96025874843E+02  0.91550361608E+02 0.  0.
         11    1    3    3    0    0 -0.14347965813E+02 -0.15443689612E+02  0.54030021167E+02  0.57996679727E+02  0.51100000000E-03 0. -1.
         22    1    1    0    0    0  0.16084830424E+02  0.17913550609E+02 -0.16120882838E+02  0.28974125157E+02  0.00000000000E+00 0. -1.
</event>
<event>
 5    1  0.1096978E-009  0.9118800E+02  0.7818608E-02  0.1130116E+00
         25   -1    0    0    0    0  0.00000000000E+00  0.00000000000E+00  0.99999998245E-14  0.12500000000E+03  0.12500000000E+03 0.  0.
        -11    1    3    3    0    0 -0.28511828235E+02 -0.47012812747E+01 -0.35258969031E+02  0.45587512460E+02  0.51100000000E-03 0. -1.
         23    2    1    0    0    0 -0.26005465533E+02 -0.40191171122E+01  0.14189294009E+02  0.95103953364E+02  0.90282824175E+02 0.  0.
         11    1    3    3    0    0  0.25063627014E+01  0.68216416246E+00  0.49448263040E+02  0.49516440904E+02  0.51100000000E-03 0.  1.
         22    1    1    0    0    0  0.26005465533E+02  0.40191171122E+01 -0.14189294009E+02  0.29896046636E+02  0.00000000000E+00 0.  1.
</event>
<event>
 5    1  0.1096978E-009  0.9118800E+02  0.7818608E-02  0.1130116E+00
         25   -1    0    0    0    0  0.00000000000E+00  0.00000000000E+00  0.99999998245E-14  0.12500000000E+03  0.12500000000E+03 0.  0.
        -11    1    3    3    0    0  0.24721705092E+02 -0.41606048529E+02  0.37097683714E+02  0.60979210507E+02  0.51100000000E-03 0.  1.
         23    2    1    0    0    0  0.13031675332E+02 -0.25342641025E+02  0.97408382908E+01  0.94884257494E+02  0.89978132751E+02 0.  0.
         11    1    3    3    0    0 -0.11690029760E+02  0.16263407503E+02 -0.27356845423E+02  0.33905046987E+02  0.51100000000E-03 0. -1.
         22    1    1    0    0    0 -0.13031675332E+02  0.25342641025E+02 -0.97408382908E+01  0.30115742506E+02  0.00000000000E+00 0.  1.
</event>
<event>
 5    1  0.1096978E-009  0.9118800E+02  0.7818608E-02  0.1130116E+00
         25   -1    0    0    0    0  0.00000000000E+00  0.00000000000E+00  0.99999998245E-14  0.12500000000E+03  0.12500000000E+03 0.  0.
        -11    1    3    3    0    0  0.22973001489E+01 -0.46011175955E+02 -0.28985634811E+02  0.54428603936E+02  0.51100000000E-03 0.  1.
         23    2    1    0    0    0  0.22505166393E+02 -0.19319599325E+02 -0.68626955444E+01  0.94556182523E+02  0.89521202130E+02 0.  0.
         11    1    3    3    0    0  0.20207866244E+02  0.26691576631E+02  0.22122939267E+02  0.40127578587E+02  0.51100000000E-03 0. -1.
         22    1    1    0    0    0 -0.22505166393E+02  0.19319599325E+02  0.68626955444E+01  0.30443817477E+02  0.00000000000E+00 0.  1.
</event>
<event>
 5    1  0.1096978E-009  0.9118800E+02  0.7818608E-02  0.1130116E+00
         25   -1    0    0    0    0  0.00000000000E+00  0.00000000000E+00  0.99999998245E-14  0.12500000000E+03  0.12500000000E+03 0.  0.
        -11    1    3    3    0    0 -0.10446256325E+01  0.37671974829E+01  0.46445380776E+02  0.46609617197E+02  0.51100000000E-03 0. -1.
         23    2    1    0    0    0  0.65774989843E+01 -0.27384224463E+02  0.10101410610E+02  0.95080144743E+02  0.90249854214E+02 0.  0.
         11    1    3    3    0    0  0.76221246168E+01 -0.31151421946E+02 -0.36343970165E+02  0.48470527546E+02  0.51100000000E-03 0.  1.
         22    1    1    0    0    0 -0.65774989843E+01  0.27384224463E+02 -0.10101410610E+02  0.29919855257E+02  0.00000000000E+00 0.  1.
</event>
<event>
 5    1  0.1096978E-009  0.9118800E+02  0.7818608E-02  0.1130116E+00
         25   -1    0    0    0    0  0.00000000000E+00  0.00000000000E+00  0.99999998245E-14  0.12500000000E+03  0.12500000000E+03 0.  0.
        -11    1    3    3    0    0  0.31090976280E+02 -0.17725588613E+02 -0.24437074848E+02  0.43336081101E+02  0.51100000000E-03 0. -1.
         23    2    1    0    0    0  0.17953966259E+02  0.11051021953E+02  0.18693371308E+02  0.96823553782E+02  0.92633085048E+02 0.  0.
         11    1    3    3    0    0 -0.13137010022E+02  0.28776610566E+02  0.43130446156E+02  0.53487472681E+02  0.51100000000E-03 0.  1.
         22    1    1    0    0    0 -0.17953966259E+02 -0.11051021953E+02 -0.18693371308E+02  0.28176446218E+02  0.00000000000E+00 0.  1.
</event>
<event>
 5    1  0.1096978E-009  0.9118800E+02  0.7818608E-02  0.1130116E+00
         25   -1    0    0    0    0  0.00000000000E+00  0.00000000000E+00  0.99999998245E-14  0.12500000000E+03  0.12500000000E+03 0.  0.
        -11    1    3    3    0    0 -0.38329929422E+02 -0.37815562446E+02  0.30640793555E+02  0.61952066007E+02  0.51100000000E-03 0. -1.
         23    2    1    0    0    0 -0.13873772579E+02 -0.21678790266E+02  0.12823835827E+02  0.96244091419E+02  0.91847824443E+02 0.  0.
         11    1    3    3    0    0  0.24456156843E+02  0.16136772181E+02 -0.17816957728E+02  0.34292025412E+02  0.51100000000E-03 0.  1.
         22    1    1    0    0    0  0.13873772579E+02  0.21678790266E+02 -0.12823835827E+02  0.28755908581E+02  0.00000000000E+00 0. -1.
</event>
<event>
 5    1  0.1096978E-009  0.9118800E+02  0.7818608E-02  0.1130116E+00
         25   -1    0    0    0    0  0.00000000000E+00  0.00000000000E+00  0.99999998245E-14  0.12500000000E+03  0.12500000000E+03 0.  0.
        -11    1    3    3    0    0 -0.35965173466E+02 -0.47565243023E+02  0.14088306297E+02  0.61273374485E+02  0.51100000000E-03 0. -1.
         23    2    1    0    0    0 -0.12423139985E+02 -0.30420860936E+02  0.97962338813E+01  0.90711089469E+02  0.83980785702E+02 0.  0.
         11    1    3    3    0    0  0.23542033481E+02  0.17144382087E+02 -0.42920724159E+01  0.29437714983E+02  0.51100000000E-03 0.  1.
         22    1    1    0    0    0  0.12423139985E+02  0.30420860936E+02 -0.97962338813E+01  0.34288910531E+02  0.00000000000E+00 0. -1.
</event>
<event>
 5    1  0.1096978E-009  0.9118800E+02  0.7818608E-02  0.1130116E+00
         25   -1    0    0    0    0  0.00000000000E+00  0.00000000000E+00  0.99999998245E-14  0.12500000000E+03  0.12500000000E+03 0.  0.
        -11    1    3    3    0    0 -0.10228649775E+02  0.32776743682E+01 -0.59769159380E+02  0.60726607337E+02  0.51100000000E-03 0.  1.
         23    2    1    0    0    0  0.42636494643E+00 -0.78018105485E+01 -0.26439171198E+02  0.97430455053E+02  0.93448455115E+02 0.  0.
         11    1    3    3    0    0  0.10655014722E+02 -0.11079484917E+02  0.33329988181E+02  0.36703847716E+02  0.51100000000E-03 0. -1.
         22    1    1    0    0    0 -0.42636494643E+00  0.78018105485E+01  0.26439171198E+02  0.27569544947E+02  0.00000000000E+00 0.  1.
</event>
<event>
 5    1  0.1096978E-009  0.9118800E+02  0.7818608E-02  0.1130116E+00
         25   -1    0    0    0    0  0.00000000000E+00  0.00000000000E+00  0.99999998245E-14  0.12500000000E+03  0.12500000000E+03 0.  0.
        -11    1    3    3    0    0  0.95558290423E+01 -0.10923915229E+01  0.58443368016E+02  0.59229506609E+02  0.51100000000E-03 0. -1.
         23    2    1    0    0    0  0.18573391285E+02 -0.25020794545E+01  0.25886367009E+02  0.93041663648E+02  0.87380866968E+02 0.  0.
         11    1    3    3    0    0  0.90175622424E+01 -0.14096879315E+01 -0.32557001006E+02  0.33812157039E+02  0.51100000000E-03 0.  1.
         22    1    1    0    0    0 -0.18573391285E+02  0.25020794545E+01 -0.25886367009E+02  0.31958336352E+02  0.00000000000E+00 0. -1.
</event>
<event>
 5    1  0.1096978E-009  0.9118800E+02  0.7818608E-02  0.1130116E+00
         25   -1    0    0    0    0  0.00000000000E+00  0.00000000000E+00  0.99999998245E-14  0.12500000000E+03  0.12500000000E+03 0.  0.
        -11    1    3    3    0    0 -0.23722421034E+01  0.56308383193E+02 -0.56712781331E+01  0.56642960254E+02  0.51100000000E-03 0. -1.
         23    2    1    0    0    0 -0.42346207451E+00  0.20953416187E+02  0.16418372720E+02  0.98376928562E+02  0.94706030116E+02 0.  0.
         11    1    3    3    0    0  0.19487800289E+01 -0.35354967006E+02  0.22089650853E+02  0.41733968307E+02  0.51100000000E-03 0.  1.
         22    1    1    0    0    0  0.42346207451E+00 -0.20953416187E+02 -0.16418372720E+02  0.26623071438E+02  0.00000000000E+00 0. -1.
</event>
<event>
 5    1  0.1096978E-009  0.9118800E+02  0.7818608E-02  0.1130116E+00
         25   -1    0    0    0    0  0.00000000000E+00  0.00000000000E+00  0.99999998245E-14  0.12500000000E+03  0.12500000000E+03 0.  0.
        -11    1    3    3    0    0  0.36086981663E+02  0.14069116321E+02 -0.32938408031E+01  0.38872350933E+02  0.51100000000E-03 0.  1.
         23    2    1    0    0    0 -0.51328627992E+01 -0.17149355792E+02  0.22166199004E+02  0.96508122861E+02  0.92206457016E+02 0.  0.
         11    1    3    3    0    0 -0.41219844462E+02 -0.31218472113E+02  0.25460039807E+02  0.57635771928E+02  0.51100000000E-03 0. -1.
         22    1    1    0    0    0  0.51328627992E+01  0.17149355792E+02 -0.22166199004E+02  0.28491877139E+02  0.00000000000E+00 0. -1.
</event>
<event>
 5    1  0.1096978E-009  0.9118800E+02  0.7818608E-02  0.1130116E+00
         25   -1    0    0    0    0  0.00000000000E+00  0.00000000000E+00  0.99999998245E-14  0.12500000000E+03  0.12500000000E+03 0.  0.
        -11    1    3    3    0    0 -0.23202243522E+02 -0.35928499394E+02 -0.73813465203E+01  0.43401445251E+02  0.51100000000E-03 0.  1.
         23    2    1    0    0    0  0.14916940817E+02 -0.76299777297E+01  0.20551290494E+02  0.98484208017E+02  0.94847519759E+02 0.  0.
         11    1    3    3    0    0  0.38119184339E+02  0.28298521665E+02  0.27932637015E+02  0.55082762766E+02  0.51100000000E-03 0. -1.
         22    1    1    0    0    0 -0.14916940817E+02  0.76299777297E+01 -0.20551290494E+02  0.26515791983E+02  0.00000000000E+00 0. -1.
</event>
<event>
 5    1  0.1096978E-009  0.9118800E+02  0.7818608E-02  0.1130116E+00
         25   -1    0    0    0    0  0.00000000000E+00  0.00000000000E+00  0.99999998245E-14  0.12500000000E+03  0.12500000000E+03 0.  0.
        -11    1    3    3    0    0  0.70857311246E+01  0.17866395644E+01  0.37830501436E+02  0.38529813205E+02  0.51100000000E-03 0. -1.
         23    2    1    0    0    0 -0.64988898268E+01  0.23542769415E+02 -0.14349706037E+02  0.96673128940E+02  0.92429877394E+02 0.  0.
         11    1    3    3    0    0 -0.13584620951E+02  0.21756129851E+02 -0.52180207473E+02  0.58143315735E+02  0.51100000000E-03 0.  1.
         22    1    1    0    0    0  0.64988898268E+01 -0.23542769415E+02  0.14349706037E+02  0.28326871060E+02  0.00000000000E+00 0.  1.
</event>
<event>
 5    1  0.1096978E-009  0.9118800E+02  0.7818608E-02  0.1130116E+00
         25   -1    0    0    0    0  0.00000000000E+00  0.00000000000E+00  0.99999998245E-14  0.12500000000E+03  0.12500000000E+03 0.  0.
        -11    1    3    3    0    0  0.19907463561E+02 -0.55906618724E+02  0.18290123227E+02  0.62099804593E+02  0.51100000000E-03 0.  1.
         23    2    1    0    0    0  0.45081825005E+01 -0.27373782235E+02  0.91703807079E+01  0.95781109781E+02  0.91215554843E+02 0.  0.
         11    1    3    3    0    0 -0.15399281060E+02  0.28532836489E+02 -0.91197425192E+01  0.33681305188E+02  0.51100000000E-03 0. -1.
         22    1    1    0    0    0 -0.45081825005E+01  0.27373782235E+02 -0.91703807079E+01  0.29218890219E+02  0.00000000000E+00 0.  1.
</event>
<event>
 5    1  0.1096978E-009  0.9118800E+02  0.7818608E-02  0.1130116E+00
         25   -1    0    0    0    0  0.00000000000E+00  0.00000000000E+00  0.99999998245E-14  0.12500000000E+03  0.12500000000E+03 0.  0.
        -11    1    3    3    0    0 -0.39548136375E+02  0.14793130081E+02 -0.40612188327E+02  0.58585336299E+02  0.51100000000E-03 0.  1.
         23    2    1    0    0    0 -0.22852595281E+02 -0.78642867120E+01 -0.15626458697E+02  0.96220244477E+02  0.91815364287E+02 0.  0.
         11    1    3    3    0    0  0.16695541095E+02 -0.22657416793E+02  0.24985729629E+02  0.37634908178E+02  0.51100000000E-03 0. -1.
         22    1    1    0    0    0  0.22852595281E+02  0.78642867120E+01  0.15626458697E+02  0.28779755523E+02  0.00000000000E+00 0.  1.
</event>
<event>
 5    1  0.1096978E-009  0.9118800E+02  0.7818608E-02  0.1130116E+00
         25   -1    0    0    0    0  0.00000000000E+00  0.00000000000E+00  0.99999998245E-14  0.12500000000E+03  0.12500000000E+03 0.  0.
        -11    1    3    3    0    0  0.32228796415E+02 -0.14341363289E+01  0.15058066345E+02  0.35601930112E+02  0.51100000000E-03 0. -1.
         23    2    1    0    0    0 -0.23232142865E+02  0.14168342328E+02 -0.63372543970E+01  0.97060150685E+02  0.92951802948E+02 0.  0.
         11    1    3    3    0    0 -0.55460939280E+02  0.15602478657E+02 -0.21395320742E+02  0.61458220573E+02  0.51100000000E-03 0.  1.
         22    1    1    0    0    0  0.23232142865E+02 -0.14168342328E+02  0.63372543970E+01  0.27939849315E+02  0.00000000000E+00 0.  1.
</event>
<event>
 5    1  0.1096978E-009  0.9118800E+02  0.7818608E-02  0.1130116E+00
         25   -1    0    0    0    0  0.00000000000E+00  0.00000000000E+00  0.99999998245E-14  0.12500000000E+03  0.12500000000E+03 0.  0.
        -11    1    3    3    0    0 -0.20982902541E+02 -0.32763228233E+02 -0.38278758574E+02  0.54579984258E+02  0.51100000000E-03 0. -1.
         23    2    1    0    0    0  0.69856153787E+01 -0.25189081724E+02 -0.55775857121E+01  0.98271772923E+02  0.94567136103E+02 0.  0.
         11    1    3    3    0    0  0.27968517919E+02  0.75741465096E+01  0.32701172862E+02  0.43691788666E+02  0.51100000000E-03 0.  1.
         22    1    1    0    0    0 -0.69856153787E+01  0.25189081724E+02  0.55775857121E+01  0.26728227077E+02  0.00000000000E+00 0. -1.
</event>
<event>
 5    1  0.1096978E-009  0.9118800E+02  0.7818608E-02  0.1130116E+00
         25   -1    0    0    0    0  0.00000000000E+00  0.00000000000E+00  0.99999998245E-14  0.12500000000E+03  0.12500000000E+03 0.  0.
        -11    1    3    3    0    0  0.36066249028E+02 -0.14245261953E+02  0.37900883905E+02  0.54223415681E+02  0.51100000000E-03 0.  1.
         23    2    1    0    0    0 -0.35347893017E+01 -0.60584145797E+01  0.28378003277E+02  0.95767993695E+02  0.91197579046E+02 0.  0.
         11    1    3    3    0    0 -0.39601038329E+02  0.81868473729E+01 -0.95228806286E+01  0.41544578014E+02  0.51100000000E-03 0. -1.
         22    1    1    0    0    0  0.35347893017E+01  0.60584145797E+01 -0.28378003277E+02  0.29232006305E+02  0.00000000000E+00 0.  1.
</event>
<event>
 5    1  0.1096978E-009  0.9118800E+02  0.7818608E-02  0.1130116E+00
         25   -1    0    0    0    0  0.00000000000E+00  0.00000000000E+00  0.99999998245E-14  0.12500000000E+03  0.12500000000E+03 0.  0.
        -11    1    3    3    0    0  0.45768617889E+02 -0.13198658406E+02 -0.28561352861E+02  0.55540272278E+02  0.51100000000E-03 0. -1.
         23    2    1    0    0    0  0.22835386649E+02 -0.15220389284E+02  0.58478400426E+01  0.96940912942E+02  0.92791315517E+02 0.  0.
         11    1    3    3    0    0 -0.22933231240E+02 -0.20217308778E+01  0.34409192903E+02  0.41400640664E+02  0.51100000000E-03 0.  1.
         22    1    1    0    0    0 -0.22835386649E+02  0.15220389284E+02 -0.58478400426E+01  0.28059087058E+02  0.00000000000E+00 0. -1.
</event>
<event>
 5    1  0.1096978E-009  0.9118800E+02  0.7818608E-02  0.1130116E+00
         25   -1    0    0    0    0  0.00000000000E+00  0.00000000000E+00  0.99999998245E-14  0.12500000000E+03  0.12500000000E+03 0.  0.
        -11    1    3    3    0    0  0.14887829007E+02  0.72256047105E+01 -0.38970228896E+02  0.42338346170E+02  0.51100000000E-03 0. -1.
         23    2    1    0    0    0  0.24369946216E+02 -0.10086282861E+02  0.11270994580E+02  0.96317902807E+02  0.91948222940E+02 0.  0.
         11    1    3    3    0    0  0.94821172096E+01 -0.17311887572E+02  0.50241223476E+02  0.53979556637E+02  0.51100000000E-03 0.  1.
         22    1    1    0    0    0 -0.24369946216E+02  0.10086282861E+02 -0.11270994580E+02  0.28682097193E+02  0.00000000000E+00 0.  1.
</event>
<event>
 5    1  0.1096978E-009  0.9118800E+02  0.7818608E-02  0.1130116E+00
         25   -1    0    0    0    0  0.00000000000E+00  0.00000000000E+00  0.99999998245E-14  0.12500000000E+03  0.12500000000E+03 0.  0.
        -11    1    3    3    0    0  0.47931277104E+02  0.69648305724E+01 -0.18878702283E+02  0.51983858936E+02  0.51100000000E-03 0.  1.
         23    2    1    0    0    0  0.17209580377E+02  0.18556274424E+02  0.11939745304E+02  0.97016746166E+02  0.92893414952E+02 0.  0.
         11    1    3    3    0    0 -0.30721696727E+02  0.11591443852E+02  0.30818447586E+02  0.45032887230E+02  0.51100000000E-03 0. -1.
         22    1    1    0    0    0 -0.17209580377E+02 -0.18556274424E+02 -0.11939745304E+02  0.27983253834E+02  0.00000000000E+00 0. -1.
</event>
<event>
 5    1  0.1096978E-009  0.9118800E+02  0.7818608E-02  0.1130116E+00
         25   -1    0    0    0    0  0.00000000000E+00  0.00000000000E+00  0.99999998245E-14  0.12500000000E+03  0.12500000000E+03 0.  0.
        -11    1    3    3    0    0  0.42704531097E+02  0.19427685997E+01 -0.45486955281E+02  0.62422066828E+02  0.51100000000E-03 0.  1.
         23    2    1    0    0    0  0.20361615824E+02  0.29739241746E+01 -0.22996596591E+02  0.94140915783E+02  0.88939467874E+02 0.  0.
         11    1    3    3    0    0 -0.22342915273E+02  0.10311555749E+01  0.22490358691E+02  0.31718848955E+02  0.51100000000E-03 0. -1.
         22    1    1    0    0    0 -0.20361615824E+02 -0.29739241746E+01  0.22996596591E+02  0.30859084217E+02  0.00000000000E+00 0.  1.
</event>
<event>
 5    1  0.1096978E-009  0.9118800E+02  0.7818608E-02  0.1130116E+00
         25   -1    0    0    0    0  0.00000000000E+00  0.00000000000E+00  0.99999998245E-14  0.12500000000E+03  0.12500000000E+03 0.  0.
        -11    1    3    3    0    0  0.46458715367E+02 -0.20240885157E+02 -0.13354569866E+02  0.52406585483E+02  0.51100000000E-03 0.  1.
         23    2    1    0    0    0  0.45271192955E+01 -0.45057318357E+01 -0.25419800982E+02  0.98790026508E+02  0.95249706702E+02 0.  0.
         11    1    3    3    0    0 -0.41931596071E+02  0.15735153321E+02 -0.12065231116E+02  0.46383441024E+02  0.51100000000E-03 0. -1.
         22    1    1    0    0    0 -0.45271192955E+01  0.45057318357E+01  0.25419800982E+02  0.26209973492E+02  0.00000000000E+00 0.  1.
</event>
<event>
 5    1  0.1096978E-009  0.9118800E+02  0.7818608E-02  0.1130116E+00
         25   -1    0    0    0    0  0.00000000000E+00  0.00000000000E+00  0.99999998245E-14  0.12500000000E+03  0.12500000000E+03 0.  0.
        -11    1    3    3    0    0 -0.33773963590E+02  0.27533287092E+02  0.14485997760E+02  0.45919567137E+02  0.51100000000E-03 0.  1.
         23    2    1    0    0    0 -0.26128022945E+02 -0.26660117773E+01 -0.19698985005E+02  0.92169660190E+02  0.86124416094E+02 0.  0.
         11    1    3    3    0    0  0.76459406452E+01 -0.30199298869E+02 -0.34184982764E+02  0.46250093053E+02  0.51100000000E-03 0. -1.
         22    1    1    0    0    0  0.26128022945E+02  0.26660117773E+01  0.19698985005E+02  0.32830339810E+02  0.00000000000E+00 0.  1.
</event>
<event>
 5    1  0.1096978E-009  0.9118800E+02  0.7818608E-02  0.1130116E+00
         25   -1    0    0    0    0  0.00000000000E+00  0.00000000000E+00  0.99999998245E-14  0.12500000000E+03  0.12500000000E+03 0.  0.
        -11    1    3    3    0    0  0.25247132237E+02 -0.28131656785E+02 -0.22433192720E+02  0.43955158236E+02  0.51100000000E-03 0.  1.
         23    2    1    0    0    0  0.22776784585E+02  0.14607277147E+02  0.83484424715E+01  0.96683027114E+02  0.92443262484E+02 0.  0.
         11    1    3    3    0    0 -0.24703476519E+01  0.42738933932E+02  0.30781635191E+02  0.52727868879E+02  0.51100000000E-03 0. -1.
         22    1    1    0    0    0 -0.22776784585E+02 -0.14607277147E+02 -0.83484424715E+01  0.28316972886E+02  0.00000000000E+00 0. -1.
</event>
<event>
 5    1  0.1096978E-009  0.9118800E+02  0.7818608E-02  0.1130116E+00
         25   -1    0    0    0    0  0.00000000000E+00  0.00000000000E+00  0.99999998245E-14  0.12500000000E+03  0.12500000000E+03 0.  0.
        -11    1    3    3    0    0  0.53924046623E+02  0.18786027542E+02  0.76744194093E+01  0.57616094527E+02  0.51100000000E-03 0. -1.
         23    2    1    0    0    0  0.32608828358E+02  0.58969787666E+00 -0.10165647325E+02  0.90838269716E+02  0.84169872454E+02 0.  0.
         11    1    3    3    0    0 -0.21315218265E+02 -0.18196329665E+02 -0.17840066735E+02  0.33222175189E+02  0.51100000000E-03 0.  1.
         22    1    1    0    0    0 -0.32608828358E+02 -0.58969787666E+00  0.10165647325E+02  0.34161730284E+02  0.00000000000E+00 0. -1.
</event>
<event>
 5    1  0.1096978E-009  0.9118800E+02  0.7818608E-02  0.1130116E+00
         25   -1    0    0    0    0  0.00000000000E+00  0.00000000000E+00  0.99999998245E-14  0.12500000000E+03  0.12500000000E+03 0.  0.
        -11    1    3    3    0    0 -0.86886546213E+01 -0.53830245845E+02 -0.21211010980E+02  0.58507222409E+02  0.51100000000E-03 0.  1.
         23    2    1    0    0    0  0.11170593818E+02 -0.25747159380E+02 -0.13939727115E+02  0.93662891415E+02  0.88265071539E+02 0.  0.
         11    1    3    3    0    0  0.19859248440E+02  0.28083086465E+02  0.72712838652E+01  0.35155669007E+02  0.51100000000E-03 0. -1.
         22    1    1    0    0    0 -0.11170593818E+02  0.25747159380E+02  0.13939727115E+02  0.31337108585E+02  0.00000000000E+00 0.  1.
</event>
<event>
 5    1  0.1096978E-009  0.9118800E+02  0.7818608E-02  0.1130116E+00
         25   -1    0    0    0    0  0.00000000000E+00  0.00000000000E+00  0.99999998245E-14  0.12500000000E+03  0.12500000000E+03 0.  0.
        -11    1    3    3    0    0  0.12548338645E+02  0.46053631357E+02  0.16417447204E+02  0.50477027814E+02  0.51100000000E-03 0.  1.
         23    2    1    0    0    0 -0.76676611860E+01  0.68260190694E+01  0.27218409131E+02  0.95909978343E+02  0.91391983159E+02 0.  0.
         11    1    3    3    0    0 -0.20215999831E+02 -0.39227612288E+02  0.10800961926E+02  0.45432950529E+02  0.51100000000E-03 0. -1.
         22    1    1    0    0    0  0.76676611860E+01 -0.68260190694E+01 -0.27218409131E+02  0.29090021657E+02  0.00000000000E+00 0.  1.
</event>
<event>
 5    1  0.1096978E-009  0.9118800E+02  0.7818608E-02  0.1130116E+00
         25   -1    0    0    0    0  0.00000000000E+00  0.00000000000E+00  0.99999998245E-14  0.12500000000E+03  0.12500000000E+03 0.  0.
        -11    1    3    3    0    0 -0.36736211164E+02  0.40726406769E+01 -0.14652115825E+02  0.39759528558E+02  0.51100000000E-03 0.  1.
         23    2    1    0    0    0  0.51981722242E+01  0.95545289399E+01  0.25002535574E+02  0.97733962465E+02  0.93853559422E+02 0.  0.
         11    1    3    3    0    0  0.41934383388E+02  0.54818882630E+01  0.39654651398E+02  0.57974433907E+02  0.51100000000E-03 0. -1.
         22    1    1    0    0    0 -0.51981722242E+01 -0.95545289399E+01 -0.25002535574E+02  0.27266037535E+02  0.00000000000E+00 0. -1.
</event>
<event>
 5    1  0.1096978E-009  0.9118800E+02  0.7818608E-02  0.1130116E+00
         25   -1    0    0    0    0  0.00000000000E+00  0.00000000000E+00  0.99999998245E-14  0.12500000000E+03  0.12500000000E+03 0.  0.
        -11    1    3    3    0    0  0.39885724865E+02  0.18920402628E+02  0.21477798604E+01  0.44198027583E+02  0.51100000000E-03 0.  1.
         23    2    1    0    0    0  0.19920132756E+02  0.13086212173E+02  0.34744760534E+02  0.82866177214E+02  0.71355058008E+02 0.  0.
         11    1    3    3    0    0 -0.19965592109E+02 -0.58341904559E+01  0.32596980674E+02  0.38668149631E+02  0.51100000000E-03 0. -1.
         22    1    1    0    0    0 -0.19920132756E+02 -0.13086212173E+02 -0.34744760534E+02  0.42133822786E+02  0.00000000000E+00 0.  1.
</event>
<event>
 5    1  0.1096978E-009  0.9118800E+02  0.7818608E-02  0.1130116E+00
         25   -1    0    0    0    0  0.00000000000E+00  0.00000000000E+00  0.99999998245E-14  0.12500000000E+03  0.12500000000E+03 0.  0.
        -11    1    3    3    0    0  0.12739391735E+02 -0.44656806299E+02 -0.60957314896E+01  0.46836741915E+02  0.51100000000E-03 0. -1.
         23    2    1    0    0    0 -0.16816512142E+02 -0.11879131382E+02  0.18463340468E+02  0.97344913953E+02  0.93333962138E+02 0.  0.
         11    1    3    3    0    0 -0.29555903877E+02  0.32777674917E+02  0.24559071957E+02  0.50508172038E+02  0.51100000000E-03 0.  1.
         22    1    1    0    0    0  0.16816512142E+02  0.11879131382E+02 -0.18463340468E+02  0.27655086047E+02  0.00000000000E+00 0.  1.
</event>
<event>
 5    1  0.1096978E-009  0.9118800E+02  0.7818608E-02  0.1130116E+00
         25   -1    0    0    0    0  0.00000000000E+00  0.00000000000E+00  0.99999998245E-14  0.12500000000E+03  0.12500000000E+03 0.  0.
        -11    1    3    3    0    0 -0.10310753666E+01  0.35910007968E+02 -0.25036568737E+02  0.43788372464E+02  0.51100000000E-03 0.  1.
         23    2    1    0    0    0  0.24767713105E+02  0.90121721655E+01  0.11738755282E+02  0.96147664996E+02  0.91716499328E+02 0.  0.
         11    1    3    3    0    0  0.25798788472E+02 -0.26897835802E+02  0.36775324019E+02  0.52359292532E+02  0.51100000000E-03 0. -1.
         22    1    1    0    0    0 -0.24767713105E+02 -0.90121721655E+01 -0.11738755282E+02  0.28852335004E+02  0.00000000000E+00 0. -1.
</event>
<event>
 5    1  0.1096978E-009  0.9118800E+02  0.7818608E-02  0.1130116E+00
         25   -1    0    0    0    0  0.00000000000E+00  0.00000000000E+00  0.99999998245E-14  0.12500000000E+03  0.12500000000E+03 0.  0.
        -11    1    3    3    0    0 -0.16572603323E+02  0.43153951573E+02  0.10658053253E+02  0.47439527998E+02  0.51100000000E-03 0. -1.
         23    2    1    0    0    0 -0.19883609678E+02 -0.36923259295E+01  0.21337224704E+02  0.95601558500E+02  0.90969168540E+02 0.  0.
         11    1    3    3    0    0 -0.33110063551E+01 -0.46846277502E+02  0.10679171451E+02  0.48162030502E+02  0.51100000000E-03 0.  1.
         22    1    1    0    0    0  0.19883609678E+02  0.36923259295E+01 -0.21337224704E+02  0.29398441500E+02  0.00000000000E+00 0. -1.
</event>
<event>
 5    1  0.1096978E-009  0.9118800E+02  0.7818608E-02  0.1130116E+00
         25   -1    0    0    0    0  0.00000000000E+00  0.00000000000E+00  0.99999998245E-14  0.12500000000E+03  0.12500000000E+03 0.  0.
        -11    1    3    3    0    0 -0.20156138144E+02  0.11677698697E+02 -0.24544389971E+02  0.33838818405E+02  0.51100000000E-03 0.  1.
         23    2    1    0    0    0  0.25681457113E+02 -0.17731568511E+02  0.51305869775E+00  0.93787678867E+02  0.88441617560E+02 0.  0.
         11    1    3    3    0    0  0.45837595257E+02 -0.29409267207E+02  0.25057448668E+02  0.59948860462E+02  0.51100000000E-03 0. -1.
         22    1    1    0    0    0 -0.25681457113E+02  0.17731568511E+02 -0.51305869775E+00  0.31212321133E+02  0.00000000000E+00 0. -1.
</event>
<event>
 5    1  0.1096978E-009  0.9118800E+02  0.7818608E-02  0.1130116E+00
         25   -1    0    0    0    0  0.00000000000E+00  0.00000000000E+00  0.99999998245E-14  0.12500000000E+03  0.12500000000E+03 0.  0.
        -11    1    3    3    0    0 -0.42134256406E+02 -0.25216945834E+02  0.31134961803E+02  0.58142718949E+02  0.51100000000E-03 0.  1.
         23    2    1    0    0    0 -0.93449628716E+01 -0.24077117360E+02  0.93178586608E+01  0.97543518043E+02  0.93599570035E+02 0.  0.
         11    1    3    3    0    0  0.32789293534E+02  0.11398284740E+01 -0.21817103142E+02  0.39400799093E+02  0.51100000000E-03 0. -1.
         22    1    1    0    0    0  0.93449628716E+01  0.24077117360E+02 -0.93178586608E+01  0.27456481957E+02  0.00000000000E+00 0.  1.
</event>
<event>
 5    1  0.1096978E-009  0.9118800E+02  0.7818608E-02  0.1130116E+00
         25   -1    0    0    0    0  0.00000000000E+00  0.00000000000E+00  0.99999998245E-14  0.12500000000E+03  0.12500000000E+03 0.  0.
        -11    1    3    3    0    0  0.27271693360E+01 -0.52428974655E+02 -0.17755577340E+01  0.52529871897E+02  0.51100000000E-03 0. -1.
         23    2    1    0    0    0  0.92354829803E+01 -0.18551729049E+02  0.22269516266E+02  0.94579741104E+02  0.89554091341E+02 0.  0.
         11    1    3    3    0    0  0.65083136443E+01  0.33877245606E+02  0.24045074000E+02  0.42049869207E+02  0.51100000000E-03 0.  1.
         22    1    1    0    0    0 -0.92354829803E+01  0.18551729049E+02 -0.22269516266E+02  0.30420258896E+02  0.00000000000E+00 0.  1.
</event>
<event>
 5    1  0.1096978E-009  0.9118800E+02  0.7818608E-02  0.1130116E+00
         25   -1    0    0    0    0  0.00000000000E+00  0.00000000000E+00  0.99999998245E-14  0.12500000000E+03  0.12500000000E+03 0.  0.
        -11    1    3    3    0    0 -0.41575196917E+02  0.61180510792E+00  0.31121705544E+02  0.51936806413E+02  0.51100000000E-03 0. -1.
         23    2    1    0    0    0 -0.27460976629E+02 -0.49438254332E+00 -0.10265766963E+02  0.95678751342E+02  0.91075176835E+02 0.  0.
         11    1    3    3    0    0  0.14114220288E+02 -0.11061876512E+01 -0.41387472506E+02  0.43741944929E+02  0.51100000000E-03 0.  1.
         22    1    1    0    0    0  0.27460976629E+02  0.49438254332E+00  0.10265766963E+02  0.29321248658E+02  0.00000000000E+00 0. -1.
</event>
<event>
 5    1  0.1096978E-009  0.9118800E+02  0.7818608E-02  0.1130116E+00
         25   -1    0    0    0    0  0.00000000000E+00  0.00000000000E+00  0.99999998245E-14  0.12500000000E+03  0.12500000000E+03 0.  0.
        -11    1    3    3    0    0 -0.29477657235E+01 -0.50639141411E+02 -0.10135184012E+02  0.51727496758E+02  0.51100000000E-03 0.  1.
         23    2    1    0    0    0 -0.19693301435E+02 -0.45647491476E+02  0.52500937955E+01  0.75009169997E+02  0.55922200415E+02 0.  0.
         11    1    3    3    0    0 -0.16745535712E+02  0.49916499349E+01  0.15385277807E+02  0.23281673239E+02  0.51100000000E-03 0. -1.
         22    1    1    0    0    0  0.19693301435E+02  0.45647491476E+02 -0.52500937955E+01  0.49990830003E+02  0.00000000000E+00 0.  1.
</event>
<event>
 5    1  0.1096978E-009  0.9118800E+02  0.7818608E-02  0.1130116E+00
         25   -1    0    0    0    0  0.00000000000E+00  0.00000000000E+00  0.99999998245E-14  0.12500000000E+03  0.12500000000E+03 0.  0.
        -11    1    3    3    0    0  0.45902726603E+02 -0.34227678626E+02  0.15676207952E+01  0.57280465509E+02  0.51100000000E-03 0.  1.
         23    2    1    0    0    0  0.10561619368E+02 -0.23941224914E+02  0.12944109590E+02  0.95806164570E+02  0.91249882972E+02 0.  0.
         11    1    3    3    0    0 -0.35341107235E+02  0.10286453711E+02  0.11376488794E+02  0.38525699061E+02  0.51100000000E-03 0. -1.
         22    1    1    0    0    0 -0.10561619368E+02  0.23941224914E+02 -0.12944109590E+02  0.29193835430E+02  0.00000000000E+00 0.  1.
</event>
<event>
 5    1  0.1096978E-009  0.9118800E+02  0.7818608E-02  0.1130116E+00
         25   -1    0    0    0    0  0.00000000000E+00  0.00000000000E+00  0.99999998245E-14  0.12500000000E+03  0.12500000000E+03 0.  0.
        -11    1    3    3    0    0  0.14484282388E+02 -0.10087845243E+02 -0.47055578080E+02  0.50257203331E+02  0.51100000000E-03 0.  1.
         23    2    1    0    0    0 -0.18356514183E+02 -0.15864219214E+02 -0.15218303202E+02  0.96360310466E+02  0.92005856425E+02 0.  0.
         11    1    3    3    0    0 -0.32840796571E+02 -0.57763739711E+01  0.31837274877E+02  0.46103107136E+02  0.51100000000E-03 0. -1.
         22    1    1    0    0    0  0.18356514183E+02  0.15864219214E+02  0.15218303202E+02  0.28639689534E+02  0.00000000000E+00 0.  1.
</event>
<event>
 5    1  0.1096978E-009  0.9118800E+02  0.7818608E-02  0.1130116E+00
         25   -1    0    0    0    0  0.00000000000E+00  0.00000000000E+00  0.99999998245E-14  0.12500000000E+03  0.12500000000E+03 0.  0.
        -11    1    3    3    0    0  0.20385073314E+02  0.34516375746E+02  0.98403200770E+00  0.40098625012E+02  0.51100000000E-03 0.  1.
         23    2    1    0    0    0 -0.25189440488E+02  0.41585053165E+01 -0.12616817029E+02  0.96522198987E+02  0.92225537390E+02 0.  0.
         11    1    3    3    0    0 -0.45574513802E+02 -0.30357870429E+02 -0.13600849036E+02  0.56423573975E+02  0.51100000000E-03 0. -1.
         22    1    1    0    0    0  0.25189440488E+02 -0.41585053165E+01  0.12616817029E+02  0.28477801013E+02  0.00000000000E+00 0. -1.
</event>
<event>
 5    1  0.1096978E-009  0.9118800E+02  0.7818608E-02  0.1130116E+00
         25   -1    0    0    0    0  0.00000000000E+00  0.00000000000E+00  0.99999998245E-14  0.12500000000E+03  0.12500000000E+03 0.  0.
        -11    1    3    3    0    0 -0.55712773855E+02 -0.16454784199E+02  0.55755417244E+01  0.58358887579E+02  0.51100000000E-03 0.  1.
         23    2    1    0    0    0 -0.24456355276E+02 -0.72166641901E+01 -0.13524833905E+02  0.96136273845E+02  0.91700973066E+02 0.  0.
         11    1    3    3    0    0  0.31256418579E+02  0.92381200087E+01 -0.19100375629E+02  0.37777386266E+02  0.51100000000E-03 0. -1.
         22    1    1    0    0    0  0.24456355276E+02  0.72166641901E+01  0.13524833905E+02  0.28863726155E+02  0.00000000000E+00 0.  1.
</event>
<event>
 5    1  0.1096978E-009  0.9118800E+02  0.7818608E-02  0.1130116E+00
         25   -1    0    0    0    0  0.00000000000E+00  0.00000000000E+00  0.99999998245E-14  0.12500000000E+03  0.12500000000E+03 0.  0.
        -11    1    3    3    0    0 -0.38159328908E+02 -0.26976566472E+02  0.50248734376E+00  0.46734591205E+02  0.51100000000E-03 0.  1.
         23    2    1    0    0    0  0.46847976081E+01 -0.16316617163E+02  0.23100910802E+02  0.96332398005E+02  0.91967926481E+02 0.  0.
         11    1    3    3    0    0  0.42844126516E+02  0.10659949310E+02  0.22598423459E+02  0.49597806799E+02  0.51100000000E-03 0. -1.
         22    1    1    0    0    0 -0.46847976081E+01  0.16316617163E+02 -0.23100910802E+02  0.28667601995E+02  0.00000000000E+00 0.  1.
</event>
<event>
 5    1  0.1096978E-009  0.9118800E+02  0.7818608E-02  0.1130116E+00
         25   -1    0    0    0    0  0.00000000000E+00  0.00000000000E+00  0.99999998245E-14  0.12500000000E+03  0.12500000000E+03 0.  0.
        -11    1    3    3    0    0  0.83108971648E+00  0.28053354413E+02  0.32510826841E+01  0.28253335074E+02  0.51100000000E-03 0. -1.
         23    2    1    0    0    0  0.37868559219E+02 -0.13149192642E+02  0.88824326691E+01  0.83941180551E+02  0.73214036480E+02 0.  0.
         11    1    3    3    0    0  0.37037469502E+02 -0.41202547055E+02  0.56313499851E+01  0.55687845477E+02  0.51100000000E-03 0.  1.
         22    1    1    0    0    0 -0.37868559219E+02  0.13149192642E+02 -0.88824326691E+01  0.41058819449E+02  0.00000000000E+00 0.  1.
</event>
<event>
 5    1  0.1096978E-009  0.9118800E+02  0.7818608E-02  0.1130116E+00
         25   -1    0    0    0    0  0.00000000000E+00  0.00000000000E+00  0.99999998245E-14  0.12500000000E+03  0.12500000000E+03 0.  0.
        -11    1    3    3    0    0 -0.32037527871E+02  0.38226788010E+02 -0.61784674410E+00  0.49880579873E+02  0.51100000000E-03 0.  1.
         23    2    1    0    0    0 -0.10433722915E+02  0.11388399811E+02  0.26904608210E+02  0.93977167005E+02  0.88709028578E+02 0.  0.
         11    1    3    3    0    0  0.21603804956E+02 -0.26838388199E+02  0.27522454954E+02  0.44096587132E+02  0.51100000000E-03 0. -1.
         22    1    1    0    0    0  0.10433722915E+02 -0.11388399811E+02 -0.26904608210E+02  0.31022832995E+02  0.00000000000E+00 0.  1.
</event>
<event>
 5    1  0.1096978E-009  0.9118800E+02  0.7818608E-02  0.1130116E+00
         25   -1    0    0    0    0  0.00000000000E+00  0.00000000000E+00  0.99999998245E-14  0.12500000000E+03  0.12500000000E+03 0.  0.
        -11    1    3    3    0    0  0.19496958273E+02  0.18088679910E+02  0.55836924326E+02  0.61847343041E+02  0.51100000000E-03 0. -1.
         23    2    1    0    0    0  0.43326677729E+01  0.12682971191E+02  0.25782900621E+02  0.95941649519E+02  0.91435290669E+02 0.  0.
         11    1    3    3    0    0 -0.15164290500E+02 -0.54057087182E+01 -0.30054023705E+02  0.34094306478E+02  0.51100000000E-03 0.  1.
         22    1    1    0    0    0 -0.43326677729E+01 -0.12682971191E+02 -0.25782900621E+02  0.29058350481E+02  0.00000000000E+00 0. -1.
</event>
<event>
 5    1  0.1096978E-009  0.9118800E+02  0.7818608E-02  0.1130116E+00
         25   -1    0    0    0    0  0.00000000000E+00  0.00000000000E+00  0.99999998245E-14  0.12500000000E+03  0.12500000000E+03 0.  0.
        -11    1    3    3    0    0 -0.32821804829E+02 -0.16508104207E+02  0.84868704432E+01  0.37706966822E+02  0.51100000000E-03 0. -1.
         23    2    1    0    0    0  0.23354831212E+02 -0.50414556446E+01  0.17008323702E+02  0.95671728808E+02  0.91065537949E+02 0.  0.
         11    1    3    3    0    0  0.56176636041E+02  0.11466648562E+02  0.85214532592E+01  0.57964761986E+02  0.51100000000E-03 0.  1.
         22    1    1    0    0    0 -0.23354831212E+02  0.50414556446E+01 -0.17008323702E+02  0.29328271192E+02  0.00000000000E+00 0.  1.
</event>
<event>
 5    1  0.1096978E-009  0.9118800E+02  0.7818608E-02  0.1130116E+00
         25   -1    0    0    0    0  0.00000000000E+00  0.00000000000E+00  0.99999998245E-14  0.12500000000E+03  0.12500000000E+03 0.  0.
        -11    1    3    3    0    0 -0.77035974100E+01 -0.36392540590E+02 -0.10101424947E+02  0.38546092018E+02  0.51100000000E-03 0.  1.
         23    2    1    0    0    0  0.22690899360E+02  0.62086380735E+01  0.15522846328E+02  0.96815201640E+02  0.92621813899E+02 0.  0.
         11    1    3    3    0    0  0.30394496770E+02  0.42601178664E+02  0.25624271275E+02  0.58269109621E+02  0.51100000000E-03 0. -1.
         22    1    1    0    0    0 -0.22690899360E+02 -0.62086380735E+01 -0.15522846328E+02  0.28184798360E+02  0.00000000000E+00 0. -1.
</event>
<event>
 5    1  0.1096978E-009  0.9118800E+02  0.7818608E-02  0.1130116E+00
         25   -1    0    0    0    0  0.00000000000E+00  0.00000000000E+00  0.99999998245E-14  0.12500000000E+03  0.12500000000E+03 0.  0.
        -11    1    3    3    0    0  0.20926376995E+02 -0.34436288586E+01 -0.45194049273E+02  0.49922679453E+02  0.51100000000E-03 0. -1.
         23    2    1    0    0    0  0.66430759268E+01 -0.28035174284E+02 -0.11591387304E+02  0.93944216085E+02  0.88662585240E+02 0.  0.
         11    1    3    3    0    0 -0.14283301069E+02 -0.24591545425E+02  0.33602661968E+02  0.44021536632E+02  0.51100000000E-03 0.  1.
         22    1    1    0    0    0 -0.66430759268E+01  0.28035174284E+02  0.11591387304E+02  0.31055783915E+02  0.00000000000E+00 0. -1.
</event>
<event>
 5    1  0.1096978E-009  0.9118800E+02  0.7818608E-02  0.1130116E+00
         25   -1    0    0    0    0  0.00000000000E+00  0.00000000000E+00  0.99999998245E-14  0.12500000000E+03  0.12500000000E+03 0.  0.
        -11    1    3    3    0    0  0.38195725455E+02 -0.17090293696E+02 -0.45630650255E+02  0.61912420600E+02  0.51100000000E-03 0.  1.
         23    2    1    0    0    0  0.13655110184E+02 -0.86611565373E+01 -0.25720255934E+02  0.94618933001E+02  0.89608778869E+02 0.  0.
         11    1    3    3    0    0 -0.24540615271E+02  0.84291371591E+01  0.19910394322E+02  0.32706512401E+02  0.51100000000E-03 0. -1.
         22    1    1    0    0    0 -0.13655110184E+02  0.86611565373E+01  0.25720255934E+02  0.30381066999E+02  0.00000000000E+00 0.  1.
</event>
<event>
 5    1  0.1096978E-009  0.9118800E+02  0.7818608E-02  0.1130116E+00
         25   -1    0    0    0    0  0.00000000000E+00  0.00000000000E+00  0.99999998245E-14  0.12500000000E+03  0.12500000000E+03 0.  0.
        -11    1    3    3    0    0  0.34498967209E+02  0.37813626556E+02 -0.55470111932E+01  0.51486099340E+02  0.51100000000E-03 0.  1.
         23    2    1    0    0    0  0.66631825892E+01  0.11082635086E+02 -0.26582415675E+02  0.95439086181E+02  0.90745642018E+02 0.  0.
         11    1    3    3    0    0 -0.27835784620E+02 -0.26730991470E+02 -0.21035404482E+02  0.43952986842E+02  0.51100000000E-03 0. -1.
         22    1    1    0    0    0 -0.66631825892E+01 -0.11082635086E+02  0.26582415675E+02  0.29560913819E+02  0.00000000000E+00 0.  1.
</event>
<event>
 5    1  0.1096978E-009  0.9118800E+02  0.7818608E-02  0.1130116E+00
         25   -1    0    0    0    0  0.00000000000E+00  0.00000000000E+00  0.99999998245E-14  0.12500000000E+03  0.12500000000E+03 0.  0.
        -11    1    3    3    0    0 -0.25661531266E+02 -0.33588801210E+02  0.37616483873E+02  0.56583757500E+02  0.51100000000E-03 0. -1.
         23    2    1    0    0    0 -0.14785808975E+02  0.31041802203E+01  0.22855087696E+02  0.97602717006E+02  0.93678595482E+02 0.  0.
         11    1    3    3    0    0  0.10875722291E+02  0.36692981430E+02 -0.14761396177E+02  0.41018959506E+02  0.51100000000E-03 0.  1.
         22    1    1    0    0    0  0.14785808975E+02 -0.31041802203E+01 -0.22855087696E+02  0.27397282994E+02  0.00000000000E+00 0. -1.
</event>
<event>
 5    1  0.1096978E-009  0.9118800E+02  0.7818608E-02  0.1130116E+00
         25   -1    0    0    0    0  0.00000000000E+00  0.00000000000E+00  0.99999998245E-14  0.12500000000E+03  0.12500000000E+03 0.  0.
        -11    1    3    3    0    0 -0.20182652059E+02 -0.11797178777E+02 -0.33619829329E+02  0.40948819221E+02  0.51100000000E-03 0.  1.
         23    2    1    0    0    0  0.27219242003E+02  0.27001913477E+01 -0.97967071805E+01  0.95945677772E+02  0.91440797476E+02 0.  0.
         11    1    3    3    0    0  0.47401894062E+02  0.14497370125E+02  0.23823122149E+02  0.54996858550E+02  0.51100000000E-03 0. -1.
         22    1    1    0    0    0 -0.27219242003E+02 -0.27001913477E+01  0.97967071805E+01  0.29054322228E+02  0.00000000000E+00 0. -1.
</event>
<event>
 5    1  0.1096978E-009  0.9118800E+02  0.7818608E-02  0.1130116E+00
         25   -1    0    0    0    0  0.00000000000E+00  0.00000000000E+00  0.99999998245E-14  0.12500000000E+03  0.12500000000E+03 0.  0.
        -11    1    3    3    0    0 -0.20868437136E+02 -0.35847829052E+02  0.90205965105E+01  0.42449142252E+02  0.51100000000E-03 0.  1.
         23    2    1    0    0    0  0.24875857340E+02 -0.16877648647E+02 -0.62985550700E+01  0.94286239269E+02  0.89143478826E+02 0.  0.
         11    1    3    3    0    0  0.45744294477E+02  0.18970180405E+02 -0.15319151580E+02  0.51837097017E+02  0.51100000000E-03 0. -1.
         22    1    1    0    0    0 -0.24875857340E+02  0.16877648647E+02  0.62985550700E+01  0.30713760731E+02  0.00000000000E+00 0. -1.
</event>
<event>
 5    1  0.1096978E-009  0.9118800E+02  0.7818608E-02  0.1130116E+00
         25   -1    0    0    0    0  0.00000000000E+00  0.00000000000E+00  0.99999998245E-14  0.12500000000E+03  0.12500000000E+03 0.  0.
        -11    1    3    3    0    0 -0.30990276004E+02  0.43769794423E+01  0.13124728238E+02  0.33938380153E+02  0.51100000000E-03 0. -1.
         23    2    1    0    0    0  0.27511903633E+02 -0.10115809422E+02  0.89410124475E+01  0.94354019100E+02  0.89238471384E+02 0.  0.
         11    1    3    3    0    0  0.58502179636E+02 -0.14492788864E+02 -0.41837157904E+01  0.60415638947E+02  0.51100000000E-03 0.  1.
         22    1    1    0    0    0 -0.27511903633E+02  0.10115809422E+02 -0.89410124475E+01  0.30645980900E+02  0.00000000000E+00 0.  1.
</event>
<event>
 5    1  0.1096978E-009  0.9118800E+02  0.7818608E-02  0.1130116E+00
         25   -1    0    0    0    0  0.00000000000E+00  0.00000000000E+00  0.99999998245E-14  0.12500000000E+03  0.12500000000E+03 0.  0.
        -11    1    3    3    0    0  0.41089117597E+02  0.34341993831E+02  0.13449884088E+02  0.55214015498E+02  0.51100000000E-03 0. -1.
         23    2    1    0    0    0  0.28817758764E+02 -0.30850957470E+01  0.76383481630E+01  0.95027923018E+02  0.90177495832E+02 0.  0.
         11    1    3    3    0    0 -0.12271358833E+02 -0.37427089578E+02 -0.58115359253E+01  0.39813907519E+02  0.51100000000E-03 0.  1.
         22    1    1    0    0    0 -0.28817758764E+02  0.30850957470E+01 -0.76383481630E+01  0.29972076982E+02  0.00000000000E+00 0. -1.
</event>
<event>
 5    1  0.1096978E-009  0.9118800E+02  0.7818608E-02  0.1130116E+00
         25   -1    0    0    0    0  0.00000000000E+00  0.00000000000E+00  0.99999998245E-14  0.12500000000E+03  0.12500000000E+03 0.  0.
        -11    1    3    3    0    0 -0.10910214425E+02  0.38542164020E+02  0.11325615989E+02  0.41626923546E+02  0.51100000000E-03 0.  1.
         23    2    1    0    0    0  0.31089864095E+01  0.20381872677E+02 -0.29825976607E+02  0.88741547042E+02  0.80996214483E+02 0.  0.
         11    1    3    3    0    0  0.14019200834E+02 -0.18160291343E+02 -0.41151592596E+02  0.47114623496E+02  0.51100000000E-03 0. -1.
         22    1    1    0    0    0 -0.31089864095E+01 -0.20381872677E+02  0.29825976607E+02  0.36258452958E+02  0.00000000000E+00 0. -1.
</event>
<event>
 5    1  0.1096978E-009  0.9118800E+02  0.7818608E-02  0.1130116E+00
         25   -1    0    0    0    0  0.00000000000E+00  0.00000000000E+00  0.99999998245E-14  0.12500000000E+03  0.12500000000E+03 0.  0.
        -11    1    3    3    0    0  0.13596636175E+01  0.39623140550E+02 -0.11421437102E+01  0.39662910190E+02  0.51100000000E-03 0. -1.
         23    2    1    0    0    0  0.19205384069E+02 -0.91998514968E+01 -0.20794497419E+02  0.95236008875E+02  0.90465475286E+02 0.  0.
         11    1    3    3    0    0  0.17845720452E+02 -0.48822992047E+02 -0.19652353709E+02  0.55573098685E+02  0.51100000000E-03 0.  1.
         22    1    1    0    0    0 -0.19205384069E+02  0.91998514968E+01  0.20794497419E+02  0.29763991125E+02  0.00000000000E+00 0.  1.
</event>
<event>
 5    1  0.1096978E-009  0.9118800E+02  0.7818608E-02  0.1130116E+00
         25   -1    0    0    0    0  0.00000000000E+00  0.00000000000E+00  0.99999998245E-14  0.12500000000E+03  0.12500000000E+03 0.  0.
        -11    1    3    3    0    0  0.12843095654E+02  0.14427996913E+02  0.47408723059E+02  0.51192765341E+02  0.51100000000E-03 0.  1.
         23    2    1    0    0    0  0.30391951730E+01 -0.19927971229E+02  0.22751562482E+02  0.94602724793E+02  0.89586166334E+02 0.  0.
         11    1    3    3    0    0 -0.98039004815E+01 -0.34355968142E+02 -0.24657160577E+02  0.43409959452E+02  0.51100000000E-03 0. -1.
         22    1    1    0    0    0 -0.30391951730E+01  0.19927971229E+02 -0.22751562482E+02  0.30397275207E+02  0.00000000000E+00 0.  1.
</event>
<event>
 5    1  0.1096978E-009  0.9118800E+02  0.7818608E-02  0.1130116E+00
         25   -1    0    0    0    0  0.00000000000E+00  0.00000000000E+00  0.99999998245E-14  0.12500000000E+03  0.12500000000E+03 0.  0.
        -11    1    3    3    0    0  0.41233598248E+02 -0.29871840618E+02 -0.74668291723E+01  0.51461539275E+02  0.51100000000E-03 0. -1.
         23    2    1    0    0    0  0.13119318794E+02 -0.10949186439E+02 -0.28804137613E+02  0.91508515218E+02  0.85159431682E+02 0.  0.
         11    1    3    3    0    0 -0.28114279454E+02  0.18922654179E+02 -0.21337308441E+02  0.40046975943E+02  0.51100000000E-03 0.  1.
         22    1    1    0    0    0 -0.13119318794E+02  0.10949186439E+02  0.28804137613E+02  0.33491484782E+02  0.00000000000E+00 0.  1.
</event>
<event>
 5    1  0.1096978E-009  0.9118800E+02  0.7818608E-02  0.1130116E+00
         25   -1    0    0    0    0  0.00000000000E+00  0.00000000000E+00  0.99999998245E-14  0.12500000000E+03  0.12500000000E+03 0.  0.
        -11    1    3    3    0    0 -0.27305577547E+02 -0.12156208915E+02 -0.28500134380E+02  0.41299220820E+02  0.51100000000E-03 0.  1.
         23    2    1    0    0    0 -0.12701538207E+02  0.25727283378E+02  0.72609275395E+01  0.95403661518E+02  0.90696832246E+02 0.  0.
         11    1    3    3    0    0  0.14604039340E+02  0.37883492293E+02  0.35761061920E+02  0.54104440698E+02  0.51100000000E-03 0. -1.
         22    1    1    0    0    0  0.12701538207E+02 -0.25727283378E+02 -0.72609275395E+01  0.29596338482E+02  0.00000000000E+00 0. -1.
</event>
<event>
 5    1  0.1096978E-009  0.9118800E+02  0.7818608E-02  0.1130116E+00
         25   -1    0    0    0    0  0.00000000000E+00  0.00000000000E+00  0.99999998245E-14  0.12500000000E+03  0.12500000000E+03 0.  0.
        -11    1    3    3    0    0  0.33531452030E+02  0.45100344212E+02  0.26825824125E+02  0.62273783918E+02  0.51100000000E-03 0.  1.
         23    2    1    0    0    0  0.13245605125E+02  0.22317089944E+02  0.15232048881E+02  0.94908242461E+02  0.90011447134E+02 0.  0.
         11    1    3    3    0    0 -0.20285846905E+02 -0.22783254268E+02 -0.11593775245E+02  0.32634458543E+02  0.51100000000E-03 0. -1.
         22    1    1    0    0    0 -0.13245605125E+02 -0.22317089944E+02 -0.15232048881E+02  0.30091757539E+02  0.00000000000E+00 0.  1.
</event>
<event>
 5    1  0.1096978E-009  0.9118800E+02  0.7818608E-02  0.1130116E+00
         25   -1    0    0    0    0  0.00000000000E+00  0.00000000000E+00  0.99999998245E-14  0.12500000000E+03  0.12500000000E+03 0.  0.
        -11    1    3    3    0    0  0.50190724863E+02  0.16739789199E+02  0.30586731401E+02  0.61113644489E+02  0.51100000000E-03 0. -1.
         23    2    1    0    0    0  0.22569922890E+02  0.16636963717E+02  0.11466052029E+02  0.94707091092E+02  0.89731670958E+02 0.  0.
         11    1    3    3    0    0 -0.27620801973E+02 -0.10282548231E+00 -0.19120679372E+02  0.33593446602E+02  0.51100000000E-03 0.  1.
         22    1    1    0    0    0 -0.22569922890E+02 -0.16636963717E+02 -0.11466052029E+02  0.30292908908E+02  0.00000000000E+00 0. -1.
</event>
<event>
 5    1  0.1096978E-009  0.9118800E+02  0.7818608E-02  0.1130116E+00
         25   -1    0    0    0    0  0.00000000000E+00  0.00000000000E+00  0.99999998245E-14  0.12500000000E+03  0.12500000000E+03 0.  0.
        -11    1    3    3    0    0 -0.15451463231E+02 -0.40644422481E+01  0.42730077333E+02  0.45619369964E+02  0.51100000000E-03 0.  1.
         23    2    1    0    0    0  0.19049341597E+02 -0.14634145452E+02  0.76268807150E+00  0.10096632942E+03  0.98064174679E+02 0.  0.
         11    1    3    3    0    0  0.34500804828E+02 -0.10569703204E+02 -0.41967389261E+02  0.55346959458E+02  0.51100000000E-03 0. -1.
         22    1    1    0    0    0 -0.19049341597E+02  0.14634145452E+02 -0.76268807150E+00  0.24033670578E+02  0.00000000000E+00 0. -1.
</event>
<event>
 5    1  0.1096978E-009  0.9118800E+02  0.7818608E-02  0.1130116E+00
         25   -1    0    0    0    0  0.00000000000E+00  0.00000000000E+00  0.99999998245E-14  0.12500000000E+03  0.12500000000E+03 0.  0.
        -11    1    3    3    0    0  0.13770610521E+02  0.37485085940E+02  0.15462888166E+02  0.42823618398E+02  0.51100000000E-03 0. -1.
         23    2    1    0    0    0 -0.18154475043E+02  0.11452508892E+02 -0.18847823989E+02  0.96434541958E+02  0.92106652797E+02 0.  0.
         11    1    3    3    0    0 -0.31925085564E+02 -0.26032577048E+02 -0.34310712156E+02  0.53610923559E+02  0.51100000000E-03 0.  1.
         22    1    1    0    0    0  0.18154475043E+02 -0.11452508892E+02  0.18847823989E+02  0.28565458042E+02  0.00000000000E+00 0.  1.
</event>
<event>
 5    1  0.1096978E-009  0.9118800E+02  0.7818608E-02  0.1130116E+00
         25   -1    0    0    0    0  0.00000000000E+00  0.00000000000E+00  0.99999998245E-14  0.12500000000E+03  0.12500000000E+03 0.  0.
        -11    1    3    3    0    0 -0.83342179049E+01  0.93164051373E+01  0.32346079893E+02  0.34677420283E+02  0.51100000000E-03 0.  1.
         23    2    1    0    0    0  0.15206112030E+01  0.28191302619E+01 -0.28329239109E+02  0.96490255309E+02  0.92182231624E+02 0.  0.
         11    1    3    3    0    0  0.98548291079E+01 -0.64972748755E+01 -0.60675319003E+02  0.61812835025E+02  0.51100000000E-03 0. -1.
         22    1    1    0    0    0 -0.15206112030E+01 -0.28191302619E+01  0.28329239109E+02  0.28509744691E+02  0.00000000000E+00 0. -1.
</event>
<event>
 5    1  0.1096978E-009  0.9118800E+02  0.7818608E-02  0.1130116E+00
         25   -1    0    0    0    0  0.00000000000E+00  0.00000000000E+00  0.99999998245E-14  0.12500000000E+03  0.12500000000E+03 0.  0.
        -11    1    3    3    0    0  0.11318030938E+02 -0.31571312619E+02  0.43245649626E+02  0.54726883856E+02  0.51100000000E-03 0.  1.
         23    2    1    0    0    0 -0.10225055720E+02 -0.16800480831E+02 -0.97500374826E-01  0.10533232533E+03  0.10347985955E+03 0.  0.
         11    1    3    3    0    0 -0.21543086658E+02  0.14770831788E+02 -0.43343150001E+02  0.50605441473E+02  0.51100000000E-03 0. -1.
         22    1    1    0    0    0  0.10225055720E+02  0.16800480831E+02  0.97500374826E-01  0.19667674671E+02  0.00000000000E+00 0.  1.
</event>
<event>
 5    1  0.1096978E-009  0.9118800E+02  0.7818608E-02  0.1130116E+00
         25   -1    0    0    0    0  0.00000000000E+00  0.00000000000E+00  0.99999998245E-14  0.12500000000E+03  0.12500000000E+03 0.  0.
        -11    1    3    3    0    0 -0.11432195310E+02  0.17509455141E+02 -0.51839990892E+02  0.55898665144E+02  0.51100000000E-03 0. -1.
         23    2    1    0    0    0  0.12291004497E+02  0.14990261270E+02 -0.34625011204E+02  0.85317911782E+02  0.75527994449E+02 0.  0.
         11    1    3    3    0    0  0.23723199807E+02 -0.25191938708E+01  0.17214979688E+02  0.29419246638E+02  0.51100000000E-03 0.  1.
         22    1    1    0    0    0 -0.12291004497E+02 -0.14990261270E+02  0.34625011204E+02  0.39682088218E+02  0.00000000000E+00 0. -1.
</event>
<event>
 5    1  0.1096978E-009  0.9118800E+02  0.7818608E-02  0.1130116E+00
         25   -1    0    0    0    0  0.00000000000E+00  0.00000000000E+00  0.99999998245E-14  0.12500000000E+03  0.12500000000E+03 0.  0.
        -11    1    3    3    0    0 -0.13763117302E+02 -0.41666228459E+02 -0.71508312843E+01  0.44459334005E+02  0.51100000000E-03 0. -1.
         23    2    1    0    0    0 -0.11904458424E+02  0.72021081692E+01 -0.24893443878E+02  0.96482110167E+02  0.92171186071E+02 0.  0.
         11    1    3    3    0    0  0.18586588775E+01  0.48868336628E+02 -0.17742612593E+02  0.52022776161E+02  0.51100000000E-03 0.  1.
         22    1    1    0    0    0  0.11904458424E+02 -0.72021081692E+01  0.24893443878E+02  0.28517889833E+02  0.00000000000E+00 0. -1.
</event>
<event>
 5    1  0.1096978E-009  0.9118800E+02  0.7818608E-02  0.1130116E+00
         25   -1    0    0    0    0  0.00000000000E+00  0.00000000000E+00  0.99999998245E-14  0.12500000000E+03  0.12500000000E+03 0.  0.
        -11    1    3    3    0    0 -0.33713091991E+02  0.15526409736E+02  0.11445951462E+02  0.38841366814E+02  0.51100000000E-03 0. -1.
         23    2    1    0    0    0  0.87321637407E+01  0.25206667066E+02 -0.19244267847E+02  0.92106708995E+02  0.86033000928E+02 0.  0.
         11    1    3    3    0    0  0.42445255732E+02  0.96802573303E+01 -0.30690219309E+02  0.53265342180E+02  0.51100000000E-03 0.  1.
         22    1    1    0    0    0 -0.87321637407E+01 -0.25206667066E+02  0.19244267847E+02  0.32893291005E+02  0.00000000000E+00 0.  1.
</event>
<event>
 5    1  0.1096978E-009  0.9118800E+02  0.7818608E-02  0.1130116E+00
         25   -1    0    0    0    0  0.00000000000E+00  0.00000000000E+00  0.99999998245E-14  0.12500000000E+03  0.12500000000E+03 0.  0.
        -11    1    3    3    0    0 -0.33674663770E+02  0.12146041469E+01  0.37361985804E+02  0.50312783929E+02  0.51100000000E-03 0.  1.
         23    2    1    0    0    0 -0.24987424719E+02 -0.11415783385E+02 -0.64944103948E+01  0.96771134086E+02  0.92562322365E+02 0.  0.
         11    1    3    3    0    0  0.86872390502E+01 -0.12630387532E+02 -0.43856396199E+02  0.46458350157E+02  0.51100000000E-03 0. -1.
         22    1    1    0    0    0  0.24987424719E+02  0.11415783385E+02  0.64944103948E+01  0.28228865914E+02  0.00000000000E+00 0.  1.
</event>
<event>
 5    1  0.1096978E-009  0.9118800E+02  0.7818608E-02  0.1130116E+00
         25   -1    0    0    0    0  0.00000000000E+00  0.00000000000E+00  0.99999998245E-14  0.12500000000E+03  0.12500000000E+03 0.  0.
        -11    1    3    3    0    0 -0.52942555689E+01  0.37611394368E+02 -0.21906112208E+02  0.43846594858E+02  0.51100000000E-03 0.  1.
         23    2    1    0    0    0  0.28163997264E+02  0.76208755229E+01 -0.21460204919E+02  0.88780821643E+02  0.81056803606E+02 0.  0.
         11    1    3    3    0    0  0.33458252833E+02 -0.29990518845E+02  0.44590728862E+00  0.44934226785E+02  0.51100000000E-03 0. -1.
         22    1    1    0    0    0 -0.28163997264E+02 -0.76208755229E+01  0.21460204919E+02  0.36219178357E+02  0.00000000000E+00 0.  1.
</event>
<event>
 5    1  0.1096978E-009  0.9118800E+02  0.7818608E-02  0.1130116E+00
         25   -1    0    0    0    0  0.00000000000E+00  0.00000000000E+00  0.99999998245E-14  0.12500000000E+03  0.12500000000E+03 0.  0.
        -11    1    3    3    0    0  0.11538632918E+02 -0.15222812978E+02  0.36907332028E+02  0.41557493214E+02  0.51100000000E-03 0.  1.
         23    2    1    0    0    0 -0.26497020284E+02  0.39971157711E+01 -0.40580667247E+00  0.98200117584E+02  0.94472373719E+02 0.  0.
         11    1    3    3    0    0 -0.38035653203E+02  0.19219928749E+02 -0.37313138700E+02  0.56642624370E+02  0.51100000000E-03 0. -1.
         22    1    1    0    0    0  0.26497020284E+02 -0.39971157711E+01  0.40580667247E+00  0.26799882416E+02  0.00000000000E+00 0. -1.
</event>
<event>
 5    1  0.1096978E-009  0.9118800E+02  0.7818608E-02  0.1130116E+00
         25   -1    0    0    0    0  0.00000000000E+00  0.00000000000E+00  0.99999998245E-14  0.12500000000E+03  0.12500000000E+03 0.  0.
        -11    1    3    3    0    0 -0.20554245676E+02 -0.91152180496E+01  0.34525879939E+02  0.41201948998E+02  0.51100000000E-03 0.  1.
         23    2    1    0    0    0  0.25045865113E+02  0.98891414422E+01  0.13221470131E+02  0.95001704213E+02  0.90141145174E+02 0.  0.
         11    1    3    3    0    0  0.45600110789E+02  0.19004359492E+02 -0.21304409808E+02  0.53799755215E+02  0.51100000000E-03 0. -1.
         22    1    1    0    0    0 -0.25045865113E+02 -0.98891414422E+01 -0.13221470131E+02  0.29998295787E+02  0.00000000000E+00 0. -1.
</event>
<event>
 5    1  0.1096978E-009  0.9118800E+02  0.7818608E-02  0.1130116E+00
         25   -1    0    0    0    0  0.00000000000E+00  0.00000000000E+00  0.99999998245E-14  0.12500000000E+03  0.12500000000E+03 0.  0.
        -11    1    3    3    0    0  0.22770976859E+02 -0.15260841709E+02 -0.22080048574E+02  0.35198568467E+02  0.51100000000E-03 0. -1.
         23    2    1    0    0    0 -0.93186258832E+01  0.29454030426E+01  0.26819574806E+02  0.96455267032E+02  0.92134774966E+02 0.  0.
         11    1    3    3    0    0 -0.32089602742E+02  0.18206244752E+02  0.48899623381E+02  0.61256698565E+02  0.51100000000E-03 0.  1.
         22    1    1    0    0    0  0.93186258832E+01 -0.29454030426E+01 -0.26819574806E+02  0.28544732968E+02  0.00000000000E+00 0.  1.
</event>
<event>
 5    1  0.1096978E-009  0.9118800E+02  0.7818608E-02  0.1130116E+00
         25   -1    0    0    0    0  0.00000000000E+00  0.00000000000E+00  0.99999998245E-14  0.12500000000E+03  0.12500000000E+03 0.  0.
        -11    1    3    3    0    0 -0.53508441692E+02 -0.13870618144E+02  0.23631173824E+02  0.60116385092E+02  0.51100000000E-03 0.  1.
         23    2    1    0    0    0 -0.22093246681E+02 -0.13268908514E+02  0.21196174961E+02  0.91631552103E+02  0.85339838445E+02 0.  0.
         11    1    3    3    0    0  0.31415195010E+02  0.60170963010E+00 -0.24349988635E+01  0.31515167011E+02  0.51100000000E-03 0. -1.
         22    1    1    0    0    0  0.22093246681E+02  0.13268908514E+02 -0.21196174961E+02  0.33368447897E+02  0.00000000000E+00 0.  1.
</event>
<event>
 5    1  0.1096978E-009  0.9118800E+02  0.7818608E-02  0.1130116E+00
         25   -1    0    0    0    0  0.00000000000E+00  0.00000000000E+00  0.99999998245E-14  0.12500000000E+03  0.12500000000E+03 0.  0.
        -11    1    3    3    0    0 -0.11320406991E+02 -0.13019997697E+02 -0.34818430683E+02  0.38858655020E+02  0.51100000000E-03 0.  1.
         23    2    1    0    0    0  0.29509934675E+02  0.29460692028E+01  0.78113867455E+00  0.95333086681E+02  0.90599512528E+02 0.  0.
         11    1    3    3    0    0  0.40830341666E+02  0.15966066900E+02  0.35599569357E+02  0.56474431661E+02  0.51100000000E-03 0. -1.
         22    1    1    0    0    0 -0.29509934675E+02 -0.29460692028E+01 -0.78113867455E+00  0.29666913319E+02  0.00000000000E+00 0. -1.
</event>
<event>
 5    1  0.1096978E-009  0.9118800E+02  0.7818608E-02  0.1130116E+00
         25   -1    0    0    0    0  0.00000000000E+00  0.00000000000E+00  0.99999998245E-14  0.12500000000E+03  0.12500000000E+03 0.  0.
        -11    1    3    3    0    0  0.42911734539E+02  0.12616005734E+02 -0.45214656186E+01  0.44955802889E+02  0.51100000000E-03 0.  1.
         23    2    1    0    0    0  0.15875457451E+02 -0.26809651804E+02  0.42338341013E+01  0.93556194086E+02  0.88113838423E+02 0.  0.
         11    1    3    3    0    0 -0.27036277087E+02 -0.39425657538E+02  0.87552997200E+01  0.48600391197E+02  0.51100000000E-03 0. -1.
         22    1    1    0    0    0 -0.15875457451E+02  0.26809651804E+02 -0.42338341013E+01  0.31443805914E+02  0.00000000000E+00 0. -1.
</event>
<event>
 5    1  0.1096978E-009  0.9118800E+02  0.7818608E-02  0.1130116E+00
         25   -1    0    0    0    0  0.00000000000E+00  0.00000000000E+00  0.99999998245E-14  0.12500000000E+03  0.12500000000E+03 0.  0.
        -11    1    3    3    0    0 -0.28667451692E+02 -0.24440323473E+02 -0.14927178469E+01  0.37701198984E+02  0.51100000000E-03 0. -1.
         23    2    1    0    0    0  0.13380144128E+02  0.86011126435E+01 -0.24396562334E+02  0.95876132652E+02  0.91345679499E+02 0.  0.
         11    1    3    3    0    0  0.42047595820E+02  0.33041436116E+02 -0.22903844487E+02  0.58174933669E+02  0.51100000000E-03 0.  1.
         22    1    1    0    0    0 -0.13380144128E+02 -0.86011126435E+01  0.24396562334E+02  0.29123867348E+02  0.00000000000E+00 0.  1.
</event>
<event>
 5    1  0.1096978E-009  0.9118800E+02  0.7818608E-02  0.1130116E+00
         25   -1    0    0    0    0  0.00000000000E+00  0.00000000000E+00  0.99999998245E-14  0.12500000000E+03  0.12500000000E+03 0.  0.
        -11    1    3    3    0    0 -0.43658005996E+01  0.24832679924E+02  0.15667984253E+02  0.29685146755E+02  0.51100000000E-03 0.  1.
         23    2    1    0    0    0 -0.78750025907E+01 -0.78115236428E+01 -0.34006980269E+02  0.89229757138E+02  0.81746188195E+02 0.  0.
         11    1    3    3    0    0 -0.35092019912E+01 -0.32644203567E+02 -0.49674964522E+02  0.59544610382E+02  0.51100000000E-03 0. -1.
         22    1    1    0    0    0  0.78750025907E+01  0.78115236428E+01  0.34006980269E+02  0.35770242862E+02  0.00000000000E+00 0. -1.
</event>
<event>
 5    1  0.1096978E-009  0.9118800E+02  0.7818608E-02  0.1130116E+00
         25   -1    0    0    0    0  0.00000000000E+00  0.00000000000E+00  0.99999998245E-14  0.12500000000E+03  0.12500000000E+03 0.  0.
        -11    1    3    3    0    0  0.24166449408E+02  0.32487616230E+02  0.93091030687E+01  0.41546623033E+02  0.51100000000E-03 0. -1.
         23    2    1    0    0    0 -0.23449929535E+02  0.91620342457E+01  0.16269770045E+02  0.95024218375E+02  0.90172360476E+02 0.  0.
         11    1    3    3    0    0 -0.47616378943E+02 -0.23325581984E+02  0.69606669761E+01  0.53477595342E+02  0.51100000000E-03 0.  1.
         22    1    1    0    0    0  0.23449929535E+02 -0.91620342457E+01 -0.16269770045E+02  0.29975781625E+02  0.00000000000E+00 0. -1.
</event>
<event>
 5    1  0.1096978E-009  0.9118800E+02  0.7818608E-02  0.1130116E+00
         25   -1    0    0    0    0  0.00000000000E+00  0.00000000000E+00  0.99999998245E-14  0.12500000000E+03  0.12500000000E+03 0.  0.
        -11    1    3    3    0    0 -0.35227965359E+01  0.43395884527E+01 -0.52533559951E+02  0.52830077085E+02  0.51100000000E-03 0.  1.
         23    2    1    0    0    0 -0.49419127978E+01 -0.21839228746E+02 -0.17532736024E+02  0.96561096244E+02  0.92278242620E+02 0.  0.
         11    1    3    3    0    0 -0.14191162619E+01 -0.26178817199E+02  0.35000823927E+02  0.43731019160E+02  0.51100000000E-03 0. -1.
         22    1    1    0    0    0  0.49419127978E+01  0.21839228746E+02  0.17532736024E+02  0.28438903756E+02  0.00000000000E+00 0.  1.
</event>
<event>
 5    1  0.1096978E-009  0.9118800E+02  0.7818608E-02  0.1130116E+00
         25   -1    0    0    0    0  0.00000000000E+00  0.00000000000E+00  0.99999998245E-14  0.12500000000E+03  0.12500000000E+03 0.  0.
        -11    1    3    3    0    0 -0.11811343250E+02 -0.22420556130E+02 -0.27300473640E+02  0.37249228553E+02  0.51100000000E-03 0.  1.
         23    2    1    0    0    0  0.16654735827E+02  0.21787808196E+02  0.21077237579E+01  0.97494885732E+02  0.93534600192E+02 0.  0.
         11    1    3    3    0    0  0.28466079077E+02  0.44208364327E+02  0.29408197398E+02  0.60245657179E+02  0.51100000000E-03 0. -1.
         22    1    1    0    0    0 -0.16654735827E+02 -0.21787808196E+02 -0.21077237579E+01  0.27505114268E+02  0.00000000000E+00 0. -1.
</event>
<event>
 5    1  0.1096978E-009  0.9118800E+02  0.7818608E-02  0.1130116E+00
         25   -1    0    0    0    0  0.00000000000E+00  0.00000000000E+00  0.99999998245E-14  0.12500000000E+03  0.12500000000E+03 0.  0.
        -11    1    3    3    0    0 -0.20766368529E+02  0.44691005556E+02  0.54730801655E+01  0.49583088309E+02  0.51100000000E-03 0.  1.
         23    2    1    0    0    0  0.17702340703E+02  0.19145306045E+02  0.12135058763E+02  0.96239345260E+02  0.91841364945E+02 0.  0.
         11    1    3    3    0    0  0.38468709232E+02 -0.25545699511E+02  0.66619785980E+01  0.46656256950E+02  0.51100000000E-03 0. -1.
         22    1    1    0    0    0 -0.17702340703E+02 -0.19145306045E+02 -0.12135058763E+02  0.28760654740E+02  0.00000000000E+00 0.  1.
</event>
<event>
 5    1  0.1096978E-009  0.9118800E+02  0.7818608E-02  0.1130116E+00
         25   -1    0    0    0    0  0.00000000000E+00  0.00000000000E+00  0.99999998245E-14  0.12500000000E+03  0.12500000000E+03 0.  0.
        -11    1    3    3    0    0  0.37749432281E+01 -0.38494081020E+02 -0.19245293903E+02  0.43202150498E+02  0.51100000000E-03 0.  1.
         23    2    1    0    0    0  0.20017639497E+02  0.12157613379E+02 -0.16280279936E+02  0.96477009818E+02  0.92164268861E+02 0.  0.
         11    1    3    3    0    0  0.16242696269E+02  0.50651694399E+02  0.29650139670E+01  0.53274859321E+02  0.51100000000E-03 0. -1.
         22    1    1    0    0    0 -0.20017639497E+02 -0.12157613379E+02  0.16280279936E+02  0.28522990182E+02  0.00000000000E+00 0. -1.
</event>
<event>
 5    1  0.1096978E-009  0.9118800E+02  0.7818608E-02  0.1130116E+00
         25   -1    0    0    0    0  0.00000000000E+00  0.00000000000E+00  0.99999998245E-14  0.12500000000E+03  0.12500000000E+03 0.  0.
        -11    1    3    3    0    0 -0.27893850671E+02  0.16735527942E+02 -0.85721625078E+01  0.33639660686E+02  0.51100000000E-03 0. -1.
         23    2    1    0    0    0  0.15635220021E+02 -0.25653769245E+02 -0.32735451009E+00  0.94955314238E+02  0.90076792569E+02 0.  0.
         11    1    3    3    0    0  0.43529070692E+02 -0.42389297187E+02  0.82448079977E+01  0.61315653552E+02  0.51100000000E-03 0.  1.
         22    1    1    0    0    0 -0.15635220021E+02  0.25653769245E+02  0.32735451009E+00  0.30044685762E+02  0.00000000000E+00 0.  1.
</event>
<event>
 5    1  0.1096978E-009  0.9118800E+02  0.7818608E-02  0.1130116E+00
         25   -1    0    0    0    0  0.00000000000E+00  0.00000000000E+00  0.99999998245E-14  0.12500000000E+03  0.12500000000E+03 0.  0.
        -11    1    3    3    0    0 -0.33505363445E+02 -0.17956104965E+02 -0.48791700998E+02  0.61851929409E+02  0.51100000000E-03 0. -1.
         23    2    1    0    0    0 -0.11113309927E+02 -0.12426456700E+02 -0.24662328453E+02  0.95231679114E+02  0.90459492473E+02 0.  0.
         11    1    3    3    0    0  0.22392053518E+02  0.55296482645E+01  0.24129372545E+02  0.33379749705E+02  0.51100000000E-03 0.  1.
         22    1    1    0    0    0  0.11113309927E+02  0.12426456700E+02  0.24662328453E+02  0.29768320886E+02  0.00000000000E+00 0. -1.
</event>
<event>
 5    1  0.1096978E-009  0.9118800E+02  0.7818608E-02  0.1130116E+00
         25   -1    0    0    0    0  0.00000000000E+00  0.00000000000E+00  0.99999998245E-14  0.12500000000E+03  0.12500000000E+03 0.  0.
        -11    1    3    3    0    0 -0.55620812723E+02 -0.16601901633E+02  0.72298156867E+01  0.58494172196E+02  0.51100000000E-03 0.  1.
         23    2    1    0    0    0 -0.28033392462E+02  0.79685342556E+01  0.40954423944E+01  0.95569721722E+02  0.90925411358E+02 0.  0.
         11    1    3    3    0    0  0.27587420261E+02  0.24570435889E+02 -0.31343732922E+01  0.37075549526E+02  0.51100000000E-03 0. -1.
         22    1    1    0    0    0  0.28033392462E+02 -0.79685342556E+01 -0.40954423944E+01  0.29430278278E+02  0.00000000000E+00 0.  1.
</event>
<event>
 5    1  0.1096978E-009  0.9118800E+02  0.7818608E-02  0.1130116E+00
         25   -1    0    0    0    0  0.00000000000E+00  0.00000000000E+00  0.99999998245E-14  0.12500000000E+03  0.12500000000E+03 0.  0.
        -11    1    3    3    0    0 -0.46652930660E+02  0.33779464582E+01  0.39731596606E+02  0.61371868397E+02  0.51100000000E-03 0.  1.
         23    2    1    0    0    0 -0.28030505254E+02  0.44614967147E+00  0.12959298832E+02  0.94115510356E+02  0.88903754640E+02 0.  0.
         11    1    3    3    0    0  0.18622425406E+02 -0.29317967868E+01 -0.26772297774E+02  0.32743641959E+02  0.51100000000E-03 0. -1.
         22    1    1    0    0    0  0.28030505254E+02 -0.44614967147E+00 -0.12959298832E+02  0.30884489644E+02  0.00000000000E+00 0.  1.
</event>
<event>
 5    1  0.1096978E-009  0.9118800E+02  0.7818608E-02  0.1130116E+00
         25   -1    0    0    0    0  0.00000000000E+00  0.00000000000E+00  0.99999998245E-14  0.12500000000E+03  0.12500000000E+03 0.  0.
        -11    1    3    3    0    0 -0.35749463027E+02  0.15080885018E+02 -0.36040044298E+02  0.52956038305E+02  0.51100000000E-03 0.  1.
         23    2    1    0    0    0 -0.50370725958E+01  0.27587901866E+02 -0.96312481862E+01  0.95348265290E+02  0.90620452010E+02 0.  0.
         11    1    3    3    0    0  0.30712390431E+02  0.12507016848E+02  0.26408796112E+02  0.42392226985E+02  0.51100000000E-03 0. -1.
         22    1    1    0    0    0  0.50370725958E+01 -0.27587901866E+02  0.96312481862E+01  0.29651734710E+02  0.00000000000E+00 0.  1.
</event>
<event>
 5    1  0.1096978E-009  0.9118800E+02  0.7818608E-02  0.1130116E+00
         25   -1    0    0    0    0  0.00000000000E+00  0.00000000000E+00  0.99999998245E-14  0.12500000000E+03  0.12500000000E+03 0.  0.
        -11    1    3    3    0    0 -0.47092510100E+01 -0.32206966921E+02 -0.15101114049E+02  0.35881881348E+02  0.51100000000E-03 0.  1.
         23    2    1    0    0    0  0.13943685364E+02  0.11083878055E+02  0.22587123550E+02  0.96234450040E+02  0.91834702101E+02 0.  0.
         11    1    3    3    0    0  0.18652936374E+02  0.43290844976E+02  0.37688237598E+02  0.60352568691E+02  0.51100000000E-03 0. -1.
         22    1    1    0    0    0 -0.13943685364E+02 -0.11083878055E+02 -0.22587123550E+02  0.28765549960E+02  0.00000000000E+00 0. -1.
</event>
<event>
 5    1  0.1096978E-009  0.9118800E+02  0.7818608E-02  0.1130116E+00
         25   -1    0    0    0    0  0.00000000000E+00  0.00000000000E+00  0.99999998245E-14  0.12500000000E+03  0.12500000000E+03 0.  0.
        -11    1    3    3    0    0  0.16859667357E+02  0.30058934392E+02  0.85820602075E+01  0.35516752073E+02  0.51100000000E-03 0.  1.
         23    2    1    0    0    0 -0.18654413124E+02 -0.15926702596E+02 -0.12680322758E+02  0.97387727912E+02  0.93391284272E+02 0.  0.
         11    1    3    3    0    0 -0.35514080481E+02 -0.45985636988E+02 -0.21262382966E+02  0.61870975839E+02  0.51100000000E-03 0. -1.
         22    1    1    0    0    0  0.18654413124E+02  0.15926702596E+02  0.12680322758E+02  0.27612272088E+02  0.00000000000E+00 0. -1.
</event>
<event>
 5    1  0.1096978E-009  0.9118800E+02  0.7818608E-02  0.1130116E+00
         25   -1    0    0    0    0  0.00000000000E+00  0.00000000000E+00  0.99999998245E-14  0.12500000000E+03  0.12500000000E+03 0.  0.
        -11    1    3    3    0    0 -0.33419680096E+02  0.18412682584E+02 -0.40709128059E+00  0.38158454125E+02  0.51100000000E-03 0. -1.
         23    2    1    0    0    0 -0.94388628215E+01  0.44152494669E+02 -0.16611651207E+02  0.76890937728E+02  0.59981117295E+02 0.  0.
         11    1    3    3    0    0  0.23980817275E+02  0.25739812085E+02 -0.16204559927E+02  0.38732483602E+02  0.51100000000E-03 0.  1.
         22    1    1    0    0    0  0.94388628215E+01 -0.44152494669E+02  0.16611651207E+02  0.48109062272E+02  0.00000000000E+00 0.  1.
</event>
<event>
 5    1  0.1096978E-009  0.9118800E+02  0.7818608E-02  0.1130116E+00
         25   -1    0    0    0    0  0.00000000000E+00  0.00000000000E+00  0.99999998245E-14  0.12500000000E+03  0.12500000000E+03 0.  0.
        -11    1    3    3    0    0  0.13633706707E+01  0.32241475006E+02  0.12692636833E+02  0.34676714380E+02  0.51100000000E-03 0.  1.
         23    2    1    0    0    0 -0.20866961192E+02 -0.12848514796E+02 -0.18901025622E+02  0.94052250947E+02  0.88814766435E+02 0.  0.
         11    1    3    3    0    0 -0.22230331863E+02 -0.45089989802E+02 -0.31593662456E+02  0.59375536567E+02  0.51100000000E-03 0. -1.
         22    1    1    0    0    0  0.20866961192E+02  0.12848514796E+02  0.18901025622E+02  0.30947749053E+02  0.00000000000E+00 0. -1.
</event>
<event>
 5    1  0.1096978E-009  0.9118800E+02  0.7818608E-02  0.1130116E+00
         25   -1    0    0    0    0  0.00000000000E+00  0.00000000000E+00  0.99999998245E-14  0.12500000000E+03  0.12500000000E+03 0.  0.
        -11    1    3    3    0    0 -0.33014152883E+02  0.32390097759E+02 -0.12907333907E+02  0.48017205169E+02  0.51100000000E-03 0.  1.
         23    2    1    0    0    0 -0.25593464171E+02 -0.12209099498E+02  0.41526839627E+01  0.96341104297E+02  0.91979759046E+02 0.  0.
         11    1    3    3    0    0  0.74206887124E+01 -0.44599197257E+02  0.17060017870E+02  0.48323899128E+02  0.51100000000E-03 0. -1.
         22    1    1    0    0    0  0.25593464171E+02  0.12209099498E+02 -0.41526839627E+01  0.28658895703E+02  0.00000000000E+00 0. -1.
</event>
<event>
 5    1  0.1096978E-009  0.9118800E+02  0.7818608E-02  0.1130116E+00
         25   -1    0    0    0    0  0.00000000000E+00  0.00000000000E+00  0.99999998245E-14  0.12500000000E+03  0.12500000000E+03 0.  0.
        -11    1    3    3    0    0 -0.10190831668E+02  0.54229605775E+01 -0.53973324329E+02  0.55194033110E+02  0.51100000000E-03 0.  1.
         23    2    1    0    0    0 -0.15493585287E+02 -0.15833349547E+02 -0.23751457485E+02  0.92521116466E+02  0.86633014011E+02 0.  0.
         11    1    3    3    0    0 -0.53027536188E+01 -0.21256310125E+02  0.30221866844E+02  0.37327083356E+02  0.51100000000E-03 0. -1.
         22    1    1    0    0    0  0.15493585287E+02  0.15833349547E+02  0.23751457485E+02  0.32478883534E+02  0.00000000000E+00 0.  1.
</event>
<event>
 5    1  0.1096978E-009  0.9118800E+02  0.7818608E-02  0.1130116E+00
         25   -1    0    0    0    0  0.00000000000E+00  0.00000000000E+00  0.99999998245E-14  0.12500000000E+03  0.12500000000E+03 0.  0.
        -11    1    3    3    0    0 -0.19171524580E+02  0.50848610884E+01  0.37155309525E+02  0.42117931967E+02  0.51100000000E-03 0. -1.
         23    2    1    0    0    0 -0.25058779605E+02  0.95174791515E+00 -0.15669375725E+02  0.95430123521E+02  0.90733295323E+02 0.  0.
         11    1    3    3    0    0 -0.58872550246E+01 -0.41331131733E+01 -0.52824685250E+02  0.53312191554E+02  0.51100000000E-03 0.  1.
         22    1    1    0    0    0  0.25058779605E+02 -0.95174791515E+00  0.15669375725E+02  0.29569876479E+02  0.00000000000E+00 0.  1.
</event>
<event>
 5    1  0.1096978E-009  0.9118800E+02  0.7818608E-02  0.1130116E+00
         25   -1    0    0    0    0  0.00000000000E+00  0.00000000000E+00  0.99999998245E-14  0.12500000000E+03  0.12500000000E+03 0.  0.
        -11    1    3    3    0    0  0.32046540465E+02 -0.33242204172E+02  0.35601715382E+02  0.58305291632E+02  0.51100000000E-03 0. -1.
         23    2    1    0    0    0  0.30549526373E+01 -0.26012757888E+02  0.13066512212E+02  0.95730048686E+02  0.91145554864E+02 0.  0.
         11    1    3    3    0    0 -0.28991587827E+02  0.72294462838E+01 -0.22535203170E+02  0.37424757053E+02  0.51100000000E-03 0.  1.
         22    1    1    0    0    0 -0.30549526373E+01  0.26012757888E+02 -0.13066512212E+02  0.29269951314E+02  0.00000000000E+00 0. -1.
</event>
<event>
 5    1  0.1096978E-009  0.9118800E+02  0.7818608E-02  0.1130116E+00
         25   -1    0    0    0    0  0.00000000000E+00  0.00000000000E+00  0.99999998245E-14  0.12500000000E+03  0.12500000000E+03 0.  0.
        -11    1    3    3    0    0  0.48388544621E+01 -0.37338342630E+02  0.16879337019E+02  0.41261099856E+02  0.51100000000E-03 0. -1.
         23    2    1    0    0    0 -0.24313566682E+02 -0.74586325988E+01 -0.16477710514E+02  0.94696606315E+02  0.89717064033E+02 0.  0.
         11    1    3    3    0    0 -0.29152421144E+02  0.29879710031E+02 -0.33357047533E+02  0.53435506459E+02  0.51100000000E-03 0.  1.
         22    1    1    0    0    0  0.24313566682E+02  0.74586325988E+01  0.16477710514E+02  0.30303393685E+02  0.00000000000E+00 0. -1.
</event>
<event>
 5    1  0.1096978E-009  0.9118800E+02  0.7818608E-02  0.1130116E+00
         25   -1    0    0    0    0  0.00000000000E+00  0.00000000000E+00  0.99999998245E-14  0.12500000000E+03  0.12500000000E+03 0.  0.
        -11    1    3    3    0    0 -0.31976323587E+02  0.12755056326E+02 -0.42214950683E+02  0.54472734404E+02  0.51100000000E-03 0.  1.
         23    2    1    0    0    0 -0.29040745809E+02 -0.27761139617E+01 -0.43499539763E+01  0.95504342261E+02  0.90835486266E+02 0.  0.
         11    1    3    3    0    0  0.29355777781E+01 -0.15531170288E+02  0.37864996707E+02  0.41031607857E+02  0.51100000000E-03 0. -1.
         22    1    1    0    0    0  0.29040745809E+02  0.27761139617E+01  0.43499539763E+01  0.29495657739E+02  0.00000000000E+00 0.  1.
</event>
<event>
 5    1  0.1096978E-009  0.9118800E+02  0.7818608E-02  0.1130116E+00
         25   -1    0    0    0    0  0.00000000000E+00  0.00000000000E+00  0.99999998245E-14  0.12500000000E+03  0.12500000000E+03 0.  0.
        -11    1    3    3    0    0  0.38659763838E+01 -0.23679589858E+02 -0.46600495251E+02  0.52414453227E+02  0.51100000000E-03 0. -1.
         23    2    1    0    0    0  0.18269091508E+02  0.83327185196E+01 -0.21586780272E+02  0.95518090548E+02  0.90854403509E+02 0.  0.
         11    1    3    3    0    0  0.14403115124E+02  0.32012308377E+02  0.25013714979E+02  0.43103637320E+02  0.51100000000E-03 0.  1.
         22    1    1    0    0    0 -0.18269091508E+02 -0.83327185196E+01  0.21586780272E+02  0.29481909452E+02  0.00000000000E+00 0.  1.
</event>
<event>
 5    1  0.1096978E-009  0.9118800E+02  0.7818608E-02  0.1130116E+00
         25   -1    0    0    0    0  0.00000000000E+00  0.00000000000E+00  0.99999998245E-14  0.12500000000E+03  0.12500000000E+03 0.  0.
        -11    1    3    3    0    0  0.26430159403E+02  0.57711120864E+00  0.27011873541E+02  0.37795868767E+02  0.51100000000E-03 0.  1.
         23    2    1    0    0    0 -0.13816641998E+01  0.22738191755E+02 -0.18570861421E+02  0.95609333894E+02  0.90979852020E+02 0.  0.
         11    1    3    3    0    0 -0.27811823603E+02  0.22161080546E+02 -0.45582734962E+02  0.57813465127E+02  0.51100000000E-03 0. -1.
         22    1    1    0    0    0  0.13816641998E+01 -0.22738191755E+02  0.18570861421E+02  0.29390666106E+02  0.00000000000E+00 0. -1.
</event>
<event>
 5    1  0.1096978E-009  0.9118800E+02  0.7818608E-02  0.1130116E+00
         25   -1    0    0    0    0  0.00000000000E+00  0.00000000000E+00  0.99999998245E-14  0.12500000000E+03  0.12500000000E+03 0.  0.
        -11    1    3    3    0    0 -0.22108363561E+02  0.49631430659E+02 -0.55248665232E+01  0.54613027740E+02  0.51100000000E-03 0.  1.
         23    2    1    0    0    0 -0.13615772473E+02  0.20449251020E+02  0.19221817113E+02  0.93806420846E+02  0.88468102791E+02 0.  0.
         11    1    3    3    0    0  0.84925910885E+01 -0.29182179639E+02  0.24746683637E+02  0.39193393106E+02  0.51100000000E-03 0. -1.
         22    1    1    0    0    0  0.13615772473E+02 -0.20449251020E+02 -0.19221817113E+02  0.31193579154E+02  0.00000000000E+00 0.  1.
</event>
<event>
 5    1  0.1096978E-009  0.9118800E+02  0.7818608E-02  0.1130116E+00
         25   -1    0    0    0    0  0.00000000000E+00  0.00000000000E+00  0.99999998245E-14  0.12500000000E+03  0.12500000000E+03 0.  0.
        -11    1    3    3    0    0  0.32966029287E+02 -0.67954610882E+01  0.15642273521E+02  0.37116278094E+02  0.51100000000E-03 0.  1.
         23    2    1    0    0    0 -0.97866439623E+01  0.26225647880E+02 -0.77062483750E+01  0.95966411335E+02  0.91469135962E+02 0.  0.
         11    1    3    3    0    0 -0.42752673249E+02  0.33021108968E+02 -0.23348521896E+02  0.58850133241E+02  0.51100000000E-03 0. -1.
         22    1    1    0    0    0  0.97866439623E+01 -0.26225647880E+02  0.77062483750E+01  0.29033588665E+02  0.00000000000E+00 0. -1.
</event>
<event>
 4    1  0.1096978E-009  0.9118800E+02  0.7818608E-02  0.1130116E+00
         25   -1    0    0    0    0  0.00000000000E+00  0.00000000000E+00  0.99999998245E-14  0.12500000000E+03  0.12500000000E+03 0.  0.
        -11    1    1    0    0    0 -0.21565475049E+02 -0.14810598354E+02 -0.48066711138E+02  0.54725060599E+02  0.51100000000E-03 0. -1.
         11    1    1    0    0    0 -0.86126576184E+01  0.15736211881E+02  0.68931842931E+01  0.19217758079E+02  0.51100000000E-03 0.  1.
         22    1    1    0    0    0  0.30178132667E+02 -0.92561352717E+00  0.41173526845E+02  0.51057181322E+02  0.00000000000E+00 0. -1.
</event>
<event>
 5    1  0.1096978E-009  0.9118800E+02  0.7818608E-02  0.1130116E+00
         25   -1    0    0    0    0  0.00000000000E+00  0.00000000000E+00  0.99999998245E-14  0.12500000000E+03  0.12500000000E+03 0.  0.
        -11    1    3    3    0    0  0.27153505558E+02  0.40077290268E+02  0.41300012748E+01  0.48585583974E+02  0.51100000000E-03 0. -1.
         23    2    1    0    0    0 -0.12102261436E+02  0.21815670159E+02 -0.14968431948E+02  0.95906321110E+02  0.91386980897E+02 0.  0.
         11    1    3    3    0    0 -0.39255766994E+02 -0.18261620108E+02 -0.19098433223E+02  0.47320737136E+02  0.51100000000E-03 0.  1.
         22    1    1    0    0    0  0.12102261436E+02 -0.21815670159E+02  0.14968431948E+02  0.29093678890E+02  0.00000000000E+00 0.  1.
</event>
<event>
 5    1  0.1096978E-009  0.9118800E+02  0.7818608E-02  0.1130116E+00
         25   -1    0    0    0    0  0.00000000000E+00  0.00000000000E+00  0.99999998245E-14  0.12500000000E+03  0.12500000000E+03 0.  0.
        -11    1    3    3    0    0  0.73683645092E+01  0.24383114549E+02  0.16111573887E+02  0.30139871998E+02  0.51100000000E-03 0.  1.
         23    2    1    0    0    0  0.11745460512E+02 -0.33155643713E+02  0.90993259030E+00  0.89813631475E+02  0.82634180995E+02 0.  0.
         11    1    3    3    0    0  0.43770960031E+01 -0.57538758262E+02 -0.15201641297E+02  0.59673759477E+02  0.51100000000E-03 0. -1.
         22    1    1    0    0    0 -0.11745460512E+02  0.33155643713E+02 -0.90993259030E+00  0.35186368525E+02  0.00000000000E+00 0. -1.
</event>
<event>
 5    1  0.1096978E-009  0.9118800E+02  0.7818608E-02  0.1130116E+00
         25   -1    0    0    0    0  0.00000000000E+00  0.00000000000E+00  0.99999998245E-14  0.12500000000E+03  0.12500000000E+03 0.  0.
        -11    1    3    3    0    0 -0.15410530863E+02  0.46984457060E+02  0.10700850772E+02  0.50591816277E+02  0.51100000000E-03 0. -1.
         23    2    1    0    0    0 -0.16170786034E+02  0.51136651954E+01  0.24953525264E+02  0.94828451883E+02  0.89900572694E+02 0.  0.
         11    1    3    3    0    0 -0.76025517117E+00 -0.41870791864E+02  0.14252674492E+02  0.44236635606E+02  0.51100000000E-03 0.  1.
         22    1    1    0    0    0  0.16170786034E+02 -0.51136651954E+01 -0.24953525264E+02  0.30171548117E+02  0.00000000000E+00 0. -1.
</event>
<event>
 5    1  0.1096978E-009  0.9118800E+02  0.7818608E-02  0.1130116E+00
         25   -1    0    0    0    0  0.00000000000E+00  0.00000000000E+00  0.99999998245E-14  0.12500000000E+03  0.12500000000E+03 0.  0.
        -11    1    3    3    0    0 -0.19996081686E+01  0.53487984534E+02  0.39572316370E+01  0.53671431924E+02  0.51100000000E-03 0. -1.
         23    2    1    0    0    0 -0.23498572299E+02  0.17506361996E+02  0.17841115009E+01  0.95642911175E+02  0.91025973182E+02 0.  0.
         11    1    3    3    0    0 -0.21498964131E+02 -0.35981622537E+02 -0.21731201362E+01  0.41971479251E+02  0.51100000000E-03 0.  1.
         22    1    1    0    0    0  0.23498572299E+02 -0.17506361996E+02 -0.17841115009E+01  0.29357088825E+02  0.00000000000E+00 0.  1.
</event>
<event>
 5    1  0.1096978E-009  0.9118800E+02  0.7818608E-02  0.1130116E+00
         25   -1    0    0    0    0  0.00000000000E+00  0.00000000000E+00  0.99999998245E-14  0.12500000000E+03  0.12500000000E+03 0.  0.
        -11    1    3    3    0    0 -0.24277902562E+02 -0.31403582311E+02 -0.87181239981E+01  0.40639970732E+02  0.51100000000E-03 0. -1.
         23    2    1    0    0    0  0.14889578429E+02 -0.83954873730E+01  0.23218196095E+02  0.96168274697E+02  0.91744583896E+02 0.  0.
         11    1    3    3    0    0  0.39167480992E+02  0.23008094938E+02  0.31936320093E+02  0.55528303965E+02  0.51100000000E-03 0.  1.
         22    1    1    0    0    0 -0.14889578429E+02  0.83954873730E+01 -0.23218196095E+02  0.28831725303E+02  0.00000000000E+00 0.  1.
</event>
<event>
 5    1  0.1096978E-009  0.9118800E+02  0.7818608E-02  0.1130116E+00
         25   -1    0    0    0    0  0.00000000000E+00  0.00000000000E+00  0.99999998245E-14  0.12500000000E+03  0.12500000000E+03 0.  0.
        -11    1    3    3    0    0  0.33524753552E+02  0.20149250200E+02  0.28243786928E+02  0.48245340548E+02  0.51100000000E-03 0. -1.
         23    2    1    0    0    0  0.26068532008E+02 -0.14616657571E+02 -0.21696264269E+01  0.95034648034E+02  0.90186817265E+02 0.  0.
         11    1    3    3    0    0 -0.74562215436E+01 -0.34765907771E+02 -0.30413413355E+02  0.46789307486E+02  0.51100000000E-03 0.  1.
         22    1    1    0    0    0 -0.26068532008E+02  0.14616657571E+02  0.21696264269E+01  0.29965351966E+02  0.00000000000E+00 0. -1.
</event>
<event>
 5    1  0.1096978E-009  0.9118800E+02  0.7818608E-02  0.1130116E+00
         25   -1    0    0    0    0  0.00000000000E+00  0.00000000000E+00  0.99999998245E-14  0.12500000000E+03  0.12500000000E+03 0.  0.
        -11    1    3    3    0    0  0.34184117733E+02  0.15311054613E+02  0.11282934795E+02  0.39118881840E+02  0.51100000000E-03 0. -1.
         23    2    1    0    0    0 -0.19013084159E+00 -0.23151132398E+02 -0.15398444071E+02  0.97194907645E+02  0.93132845501E+02 0.  0.
         11    1    3    3    0    0 -0.34374248575E+02 -0.38462187012E+02 -0.26681378866E+02  0.58076025805E+02  0.51100000000E-03 0.  1.
         22    1    1    0    0    0  0.19013084159E+00  0.23151132398E+02  0.15398444071E+02  0.27805092355E+02  0.00000000000E+00 0.  1.
</event>
<event>
 5    1  0.1096978E-009  0.9118800E+02  0.7818608E-02  0.1130116E+00
         25   -1    0    0    0    0  0.00000000000E+00  0.00000000000E+00  0.99999998245E-14  0.12500000000E+03  0.12500000000E+03 0.  0.
        -11    1    3    3    0    0 -0.38619783491E+01  0.57047825296E+02 -0.11360764243E+02  0.58296108036E+02  0.51100000000E-03 0.  1.
         23    2    1    0    0    0 -0.12228034766E+02  0.25634842766E+02  0.71595300820E+01  0.95709577182E+02  0.91117475247E+02 0.  0.
         11    1    3    3    0    0 -0.83660564165E+01 -0.31412982529E+02  0.18520294325E+02  0.37413469145E+02  0.51100000000E-03 0. -1.
         22    1    1    0    0    0  0.12228034766E+02 -0.25634842766E+02 -0.71595300820E+01  0.29290422818E+02  0.00000000000E+00 0.  1.
</event>
<event>
 5    1  0.1096978E-009  0.9118800E+02  0.7818608E-02  0.1130116E+00
         25   -1    0    0    0    0  0.00000000000E+00  0.00000000000E+00  0.99999998245E-14  0.12500000000E+03  0.12500000000E+03 0.  0.
        -11    1    3    3    0    0 -0.17913435914E+01 -0.18837175189E+01 -0.45628119341E+02  0.45702106936E+02  0.51100000000E-03 0.  1.
         23    2    1    0    0    0 -0.28532675325E+02  0.41387169518E+01 -0.35081386711E+01  0.95956075056E+02  0.91455009507E+02 0.  0.
         11    1    3    3    0    0 -0.26741331734E+02  0.60224344706E+01  0.42119980670E+02  0.50253968120E+02  0.51100000000E-03 0. -1.
         22    1    1    0    0    0  0.28532675325E+02 -0.41387169518E+01  0.35081386711E+01  0.29043924944E+02  0.00000000000E+00 0. -1.
</event>
<event>
 5    1  0.1096978E-009  0.9118800E+02  0.7818608E-02  0.1130116E+00
         25   -1    0    0    0    0  0.00000000000E+00  0.00000000000E+00  0.99999998245E-14  0.12500000000E+03  0.12500000000E+03 0.  0.
        -11    1    3    3    0    0 -0.22476330472E+02 -0.57895594282E+02  0.38185183429E+01  0.62222715719E+02  0.51100000000E-03 0.  1.
         23    2    1    0    0    0 -0.75334572457E+01 -0.27313365748E+02 -0.12683028090E+01  0.96638379480E+02  0.92382871085E+02 0.  0.
         11    1    3    3    0    0  0.14942873226E+02  0.30582228535E+02 -0.50868211520E+01  0.34415663761E+02  0.51100000000E-03 0. -1.
         22    1    1    0    0    0  0.75334572457E+01  0.27313365748E+02  0.12683028090E+01  0.28361620520E+02  0.00000000000E+00 0.  1.
</event>
<event>
 5    1  0.1096978E-009  0.9118800E+02  0.7818608E-02  0.1130116E+00
         25   -1    0    0    0    0  0.00000000000E+00  0.00000000000E+00  0.99999998245E-14  0.12500000000E+03  0.12500000000E+03 0.  0.
        -11    1    3    3    0    0  0.49429171444E+02  0.82341969516E+01  0.25228000477E+02  0.56102557851E+02  0.51100000000E-03 0.  1.
         23    2    1    0    0    0  0.11515704776E+02  0.12658708263E+02  0.25518744665E+02  0.94274429531E+02  0.89126917274E+02 0.  0.
         11    1    3    3    0    0 -0.37913466668E+02  0.44245113111E+01  0.29074418833E+00  0.38171871680E+02  0.51100000000E-03 0. -1.
         22    1    1    0    0    0 -0.11515704776E+02 -0.12658708263E+02 -0.25518744665E+02  0.30725570469E+02  0.00000000000E+00 0.  1.
</event>
<event>
 5    1  0.1096978E-009  0.9118800E+02  0.7818608E-02  0.1130116E+00
         25   -1    0    0    0    0  0.00000000000E+00  0.00000000000E+00  0.99999998245E-14  0.12500000000E+03  0.12500000000E+03 0.  0.
        -11    1    3    3    0    0 -0.11509323784E+02  0.30099721901E+02  0.38566905133E+02  0.50257974136E+02  0.51100000000E-03 0.  1.
         23    2    1    0    0    0  0.19932588497E+02  0.13750155430E+01  0.20042091070E+02  0.96700103067E+02  0.92466349375E+02 0.  0.
         11    1    3    3    0    0  0.31441912282E+02 -0.28724706358E+02 -0.18524814063E+02  0.46442128931E+02  0.51100000000E-03 0. -1.
         22    1    1    0    0    0 -0.19932588497E+02 -0.13750155430E+01 -0.20042091070E+02  0.28299896933E+02  0.00000000000E+00 0. -1.
</event>
<event>
 5    1  0.1096978E-009  0.9118800E+02  0.7818608E-02  0.1130116E+00
         25   -1    0    0    0    0  0.00000000000E+00  0.00000000000E+00  0.99999998245E-14  0.12500000000E+03  0.12500000000E+03 0.  0.
        -11    1    3    3    0    0  0.14097580105E+02 -0.34663559559E+02 -0.28460582566E+01  0.37528711328E+02  0.51100000000E-03 0.  1.
         23    2    1    0    0    0  0.80668067540E+01  0.15999856105E+02  0.23895095481E+02  0.95132888411E+02  0.90322876962E+02 0.  0.
         11    1    3    3    0    0 -0.60307733506E+01  0.50663415664E+02  0.26741153738E+02  0.57604177083E+02  0.51100000000E-03 0. -1.
         22    1    1    0    0    0 -0.80668067540E+01 -0.15999856105E+02 -0.23895095481E+02  0.29867111589E+02  0.00000000000E+00 0.  1.
</event>
<event>
 5    1  0.1096978E-009  0.9118800E+02  0.7818608E-02  0.1130116E+00
         25   -1    0    0    0    0  0.00000000000E+00  0.00000000000E+00  0.99999998245E-14  0.12500000000E+03  0.12500000000E+03 0.  0.
        -11    1    3    3    0    0  0.20120570220E+02  0.96208271423E+01  0.26965288428E+02  0.34993205643E+02  0.51100000000E-03 0.  1.
         23    2    1    0    0    0 -0.29769691972E+02 -0.10970461734E+02  0.72372415200E+01  0.92458284379E+02  0.86542308120E+02 0.  0.
         11    1    3    3    0    0 -0.49890262191E+02 -0.20591288876E+02 -0.19728046908E+02  0.57465078736E+02  0.51100000000E-03 0. -1.
         22    1    1    0    0    0  0.29769691972E+02  0.10970461734E+02 -0.72372415200E+01  0.32541715621E+02  0.00000000000E+00 0. -1.
</event>
<event>
 5    1  0.1096978E-009  0.9118800E+02  0.7818608E-02  0.1130116E+00
         25   -1    0    0    0    0  0.00000000000E+00  0.00000000000E+00  0.99999998245E-14  0.12500000000E+03  0.12500000000E+03 0.  0.
        -11    1    3    3    0    0 -0.64679892216E-01  0.34555794679E+02  0.12592884819E+02  0.36778905335E+02  0.51100000000E-03 0.  1.
         23    2    1    0    0    0  0.15077669664E+02 -0.20335021451E+02  0.17943214894E+02  0.93970849502E+02  0.88700126130E+02 0.  0.
         11    1    3    3    0    0  0.15142349556E+02 -0.54890816129E+02  0.53503300755E+01  0.57191944167E+02  0.51100000000E-03 0. -1.
         22    1    1    0    0    0 -0.15077669664E+02  0.20335021451E+02 -0.17943214894E+02  0.31029150498E+02  0.00000000000E+00 0. -1.
</event>
<event>
 5    1  0.1096978E-009  0.9118800E+02  0.7818608E-02  0.1130116E+00
         25   -1    0    0    0    0  0.00000000000E+00  0.00000000000E+00  0.99999998245E-14  0.12500000000E+03  0.12500000000E+03 0.  0.
        -11    1    3    3    0    0 -0.19844275743E+02 -0.52479652702E+02  0.26692277161E+02  0.62132011780E+02  0.51100000000E-03 0.  1.
         23    2    1    0    0    0 -0.12824541037E+02 -0.22785325815E+02  0.15324345583E+02  0.94693639399E+02  0.89712930227E+02 0.  0.
         11    1    3    3    0    0  0.70197347054E+01  0.29694326887E+02 -0.11367931578E+02  0.32561627620E+02  0.51100000000E-03 0. -1.
         22    1    1    0    0    0  0.12824541037E+02  0.22785325815E+02 -0.15324345583E+02  0.30306360601E+02  0.00000000000E+00 0.  1.
</event>
<event>
 5    1  0.1096978E-009  0.9118800E+02  0.7818608E-02  0.1130116E+00
         25   -1    0    0    0    0  0.00000000000E+00  0.00000000000E+00  0.99999998245E-14  0.12500000000E+03  0.12500000000E+03 0.  0.
        -11    1    3    3    0    0  0.36197375409E+02 -0.12287795838E+02 -0.31872489304E+02  0.49770427844E+02  0.51100000000E-03 0.  1.
         23    2    1    0    0    0 -0.22606033464E+01  0.10771811944E+02 -0.28160105110E+02  0.94765354644E+02  0.89812797868E+02 0.  0.
         11    1    3    3    0    0 -0.38457978756E+02  0.23059607782E+02  0.37123841946E+01  0.44994926799E+02  0.51100000000E-03 0. -1.
         22    1    1    0    0    0  0.22606033464E+01 -0.10771811944E+02  0.28160105110E+02  0.30234645356E+02  0.00000000000E+00 0.  1.
</event>
<event>
 5    1  0.1096978E-009  0.9118800E+02  0.7818608E-02  0.1130116E+00
         25   -1    0    0    0    0  0.00000000000E+00  0.00000000000E+00  0.99999998245E-14  0.12500000000E+03  0.12500000000E+03 0.  0.
        -11    1    3    3    0    0  0.56259759138E+01 -0.10775537100E+02  0.59621980366E+02  0.60848536119E+02  0.51100000000E-03 0.  1.
         23    2    1    0    0    0  0.95480368114E+01 -0.12212927745E+02  0.25998454706E+02  0.94730539183E+02  0.89764329195E+02 0.  0.
         11    1    3    3    0    0  0.39220608976E+01 -0.14373906455E+01 -0.33623525661E+02  0.33882003064E+02  0.51100000000E-03 0. -1.
         22    1    1    0    0    0 -0.95480368114E+01  0.12212927745E+02 -0.25998454706E+02  0.30269460817E+02  0.00000000000E+00 0.  1.
</event>
<event>
 5    1  0.1096978E-009  0.9118800E+02  0.7818608E-02  0.1130116E+00
         25   -1    0    0    0    0  0.00000000000E+00  0.00000000000E+00  0.99999998245E-14  0.12500000000E+03  0.12500000000E+03 0.  0.
        -11    1    3    3    0    0 -0.36392641347E+02  0.62125832189E+00  0.11343888545E+02  0.38124717884E+02  0.51100000000E-03 0.  1.
         23    2    1    0    0    0  0.16061583949E+02 -0.21936427624E+02  0.12129480355E+02  0.95229114398E+02  0.90455948393E+02 0.  0.
         11    1    3    3    0    0  0.52454225296E+02 -0.22557685946E+02  0.78559180907E+00  0.57104396515E+02  0.51100000000E-03 0. -1.
         22    1    1    0    0    0 -0.16061583949E+02  0.21936427624E+02 -0.12129480355E+02  0.29770885602E+02  0.00000000000E+00 0. -1.
</event>
<event>
 5    1  0.1096978E-009  0.9118800E+02  0.7818608E-02  0.1130116E+00
         25   -1    0    0    0    0  0.00000000000E+00  0.00000000000E+00  0.99999998245E-14  0.12500000000E+03  0.12500000000E+03 0.  0.
        -11    1    3    3    0    0  0.25179433629E+02  0.19723250325E+02 -0.82455598835E+01  0.33030285184E+02  0.51100000000E-03 0. -1.
         23    2    1    0    0    0  0.82988706814E+01 -0.10580743060E+02  0.34436773725E+02  0.88030894481E+02  0.79891949659E+02 0.  0.
         11    1    3    3    0    0 -0.16880562948E+02 -0.30303993386E+02  0.42682333608E+02  0.55000609297E+02  0.51100000000E-03 0.  1.
         22    1    1    0    0    0 -0.82988706814E+01  0.10580743060E+02 -0.34436773725E+02  0.36969105519E+02  0.00000000000E+00 0.  1.
</event>
<event>
 5    1  0.1096978E-009  0.9118800E+02  0.7818608E-02  0.1130116E+00
         25   -1    0    0    0    0  0.00000000000E+00  0.00000000000E+00  0.99999998245E-14  0.12500000000E+03  0.12500000000E+03 0.  0.
        -11    1    3    3    0    0 -0.91047908651E+01  0.26529728675E+02 -0.40558458435E+02  0.49312394702E+02  0.51100000000E-03 0.  1.
         23    2    1    0    0    0  0.11518556856E+02  0.32316478275E+02 -0.57060419058E+01  0.90220827578E+02  0.83247864203E+02 0.  0.
         11    1    3    3    0    0  0.20623347721E+02  0.57867496001E+01  0.34852416530E+02  0.40908432876E+02  0.51100000000E-03 0. -1.
         22    1    1    0    0    0 -0.11518556856E+02 -0.32316478275E+02  0.57060419058E+01  0.34779172422E+02  0.00000000000E+00 0.  1.
</event>
<event>
 5    1  0.1096978E-009  0.9118800E+02  0.7818608E-02  0.1130116E+00
         25   -1    0    0    0    0  0.00000000000E+00  0.00000000000E+00  0.99999998245E-14  0.12500000000E+03  0.12500000000E+03 0.  0.
        -11    1    3    3    0    0  0.21630006813E+02  0.39863017929E+02  0.11815900035E+01  0.45368640582E+02  0.51100000000E-03 0. -1.
         23    2    1    0    0    0 -0.23545261811E+02  0.10828666097E+02 -0.56955655724E-01  0.99083931488E+02  0.95634632179E+02 0.  0.
         11    1    3    3    0    0 -0.45175268623E+02 -0.29034351832E+02 -0.12385456592E+01  0.53715290906E+02  0.51100000000E-03 0.  1.
         22    1    1    0    0    0  0.23545261811E+02 -0.10828666097E+02  0.56955655724E-01  0.25916068512E+02  0.00000000000E+00 0.  1.
</event>
<event>
 5    1  0.1096978E-009  0.9118800E+02  0.7818608E-02  0.1130116E+00
         25   -1    0    0    0    0  0.00000000000E+00  0.00000000000E+00  0.99999998245E-14  0.12500000000E+03  0.12500000000E+03 0.  0.
        -11    1    3    3    0    0 -0.12939177565E+01 -0.34431404838E+01 -0.42301214199E+02  0.42460830921E+02  0.51100000000E-03 0.  1.
         23    2    1    0    0    0 -0.60844829243E+01  0.28815609009E+02 -0.41483032459E+00  0.95546098065E+02  0.90892928857E+02 0.  0.
         11    1    3    3    0    0 -0.47905651678E+01  0.32258749492E+02  0.41886383874E+02  0.53085267144E+02  0.51100000000E-03 0. -1.
         22    1    1    0    0    0  0.60844829243E+01 -0.28815609009E+02  0.41483032459E+00  0.29453901935E+02  0.00000000000E+00 0. -1.
</event>
<event>
 5    1  0.1096978E-009  0.9118800E+02  0.7818608E-02  0.1130116E+00
         25   -1    0    0    0    0  0.00000000000E+00  0.00000000000E+00  0.99999998245E-14  0.12500000000E+03  0.12500000000E+03 0.  0.
        -11    1    3    3    0    0  0.23233597090E+02 -0.45237242250E+02  0.16541836835E+02  0.53477476439E+02  0.51100000000E-03 0.  1.
         23    2    1    0    0    0 -0.43261056935E+01 -0.15155203345E+02  0.25288381580E+02  0.95202388991E+02  0.90419009327E+02 0.  0.
         11    1    3    3    0    0 -0.27559702784E+02  0.30082038905E+02  0.87465447457E+01  0.41724912552E+02  0.51100000000E-03 0. -1.
         22    1    1    0    0    0  0.43261056935E+01  0.15155203345E+02 -0.25288381580E+02  0.29797611009E+02  0.00000000000E+00 0. -1.
</event>
<event>
 5    1  0.1096978E-009  0.9118800E+02  0.7818608E-02  0.1130116E+00
         25   -1    0    0    0    0  0.00000000000E+00  0.00000000000E+00  0.99999998245E-14  0.12500000000E+03  0.12500000000E+03 0.  0.
        -11    1    3    3    0    0  0.50009558736E+02 -0.16822150088E+01 -0.96813403320E+01  0.50965813672E+02  0.51100000000E-03 0.  1.
         23    2    1    0    0    0  0.11541509773E+02 -0.23839288645E+02 -0.13025013313E+02  0.95484426099E+02  0.90808075217E+02 0.  0.
         11    1    3    3    0    0 -0.38468048963E+02 -0.22157073636E+02 -0.33436729812E+01  0.44518612427E+02  0.51100000000E-03 0. -1.
         22    1    1    0    0    0 -0.11541509773E+02  0.23839288645E+02  0.13025013313E+02  0.29515573901E+02  0.00000000000E+00 0.  1.
</event>
<event>
 5    1  0.1096978E-009  0.9118800E+02  0.7818608E-02  0.1130116E+00
         25   -1    0    0    0    0  0.00000000000E+00  0.00000000000E+00  0.99999998245E-14  0.12500000000E+03  0.12500000000E+03 0.  0.
        -11    1    3    3    0    0  0.39860372890E+02 -0.15242210097E+02  0.15769245346E+02  0.45495531590E+02  0.51100000000E-03 0. -1.
         23    2    1    0    0    0 -0.10007944412E+02 -0.14893996671E+02  0.22937396405E+02  0.95877598965E+02  0.91347686020E+02 0.  0.
         11    1    3    3    0    0 -0.49868317302E+02  0.34821342592E+00  0.71681510591E+01  0.50382067375E+02  0.51100000000E-03 0.  1.
         22    1    1    0    0    0  0.10007944412E+02  0.14893996671E+02 -0.22937396405E+02  0.29122401035E+02  0.00000000000E+00 0.  1.
</event>
<event>
 5    1  0.1096978E-009  0.9118800E+02  0.7818608E-02  0.1130116E+00
         25   -1    0    0    0    0  0.00000000000E+00  0.00000000000E+00  0.99999998245E-14  0.12500000000E+03  0.12500000000E+03 0.  0.
        -11    1    3    3    0    0 -0.16912348311E+02  0.31678740208E+02 -0.20128051372E+02  0.41166838097E+02  0.51100000000E-03 0.  1.
         23    2    1    0    0    0 -0.21263066169E+02 -0.12221166140E+02  0.13835702784E+02  0.96841492293E+02  0.92657288290E+02 0.  0.
         11    1    3    3    0    0 -0.43507178587E+01 -0.43899906348E+02  0.33963754157E+02  0.55674654197E+02  0.51100000000E-03 0. -1.
         22    1    1    0    0    0  0.21263066169E+02  0.12221166140E+02 -0.13835702784E+02  0.28158507707E+02  0.00000000000E+00 0. -1.
</event>
<event>
 5    1  0.1096978E-009  0.9118800E+02  0.7818608E-02  0.1130116E+00
         25   -1    0    0    0    0  0.00000000000E+00  0.00000000000E+00  0.99999998245E-14  0.12500000000E+03  0.12500000000E+03 0.  0.
        -11    1    3    3    0    0  0.47728103445E+02  0.19956992093E+02 -0.17521527707E+02  0.54619202899E+02  0.51100000000E-03 0.  1.
         23    2    1    0    0    0  0.45230917125E+01  0.24161456068E+02 -0.39278923202E+01  0.10010697576E+03  0.96962590409E+02 0.  0.
         11    1    3    3    0    0 -0.43205011733E+02  0.42044639745E+01  0.13593635387E+02  0.45487772856E+02  0.51100000000E-03 0. -1.
         22    1    1    0    0    0 -0.45230917125E+01 -0.24161456068E+02  0.39278923202E+01  0.24893024244E+02  0.00000000000E+00 0.  1.
</event>
<event>
 5    1  0.1096978E-009  0.9118800E+02  0.7818608E-02  0.1130116E+00
         25   -1    0    0    0    0  0.00000000000E+00  0.00000000000E+00  0.99999998245E-14  0.12500000000E+03  0.12500000000E+03 0.  0.
        -11    1    3    3    0    0 -0.17910520538E+02 -0.11588567920E+02  0.41159625303E+02  0.46359426309E+02  0.51100000000E-03 0.  1.
         23    2    1    0    0    0 -0.29453155348E+02  0.48298528406E+01 -0.31355130849E+01  0.94989213927E+02  0.90123823053E+02 0.  0.
         11    1    3    3    0    0 -0.11542634811E+02  0.16418420760E+02 -0.44295138388E+02  0.48629787617E+02  0.51100000000E-03 0. -1.
         22    1    1    0    0    0  0.29453155348E+02 -0.48298528406E+01  0.31355130849E+01  0.30010786073E+02  0.00000000000E+00 0. -1.
</event>
<event>
 5    1  0.1096978E-009  0.9118800E+02  0.7818608E-02  0.1130116E+00
         25   -1    0    0    0    0  0.00000000000E+00  0.00000000000E+00  0.99999998245E-14  0.12500000000E+03  0.12500000000E+03 0.  0.
        -11    1    3    3    0    0 -0.22302687039E+02 -0.22800147575E+02  0.84679937770E+01  0.32999446927E+02  0.51100000000E-03 0. -1.
         23    2    1    0    0    0  0.69151904196E+01  0.30124782672E+02 -0.32534438406E+00  0.94089997759E+02  0.88867876310E+02 0.  0.
         11    1    3    3    0    0  0.29217877459E+02  0.52924930246E+02 -0.87933381611E+01  0.61090550833E+02  0.51100000000E-03 0.  1.
         22    1    1    0    0    0 -0.69151904196E+01 -0.30124782672E+02  0.32534438406E+00  0.30910002241E+02  0.00000000000E+00 0.  1.
</event>
<event>
 5    1  0.1096978E-009  0.9118800E+02  0.7818608E-02  0.1130116E+00
         25   -1    0    0    0    0  0.00000000000E+00  0.00000000000E+00  0.99999998245E-14  0.12500000000E+03  0.12500000000E+03 0.  0.
        -11    1    3    3    0    0  0.24303482313E+02  0.10076608806E+02 -0.30069186605E+02  0.39954390008E+02  0.51100000000E-03 0.  1.
         23    2    1    0    0    0 -0.27197799040E+02  0.32927686215E+01 -0.74705587623E+01  0.96603312763E+02  0.92335411358E+02 0.  0.
         11    1    3    3    0    0 -0.51501281353E+02 -0.67838401847E+01  0.22598627843E+02  0.56648922755E+02  0.51100000000E-03 0. -1.
         22    1    1    0    0    0  0.27197799040E+02 -0.32927686215E+01  0.74705587623E+01  0.28396687237E+02  0.00000000000E+00 0. -1.
</event>
<event>
 5    1  0.1096978E-009  0.9118800E+02  0.7818608E-02  0.1130116E+00
         25   -1    0    0    0    0  0.00000000000E+00  0.00000000000E+00  0.99999998245E-14  0.12500000000E+03  0.12500000000E+03 0.  0.
        -11    1    3    3    0    0 -0.27394071259E+02 -0.30430837170E+02 -0.10103385160E+02  0.42172851255E+02  0.51100000000E-03 0.  1.
         23    2    1    0    0    0  0.15456091177E+01  0.86679247526E+01 -0.29253341398E+02  0.94450371360E+02  0.89373334055E+02 0.  0.
         11    1    3    3    0    0  0.28939680376E+02  0.39098761923E+02 -0.19149956238E+02  0.52277520106E+02  0.51100000000E-03 0. -1.
         22    1    1    0    0    0 -0.15456091177E+01 -0.86679247526E+01  0.29253341398E+02  0.30549628640E+02  0.00000000000E+00 0. -1.
</event>
<event>
 5    1  0.1096978E-009  0.9118800E+02  0.7818608E-02  0.1130116E+00
         25   -1    0    0    0    0  0.00000000000E+00  0.00000000000E+00  0.99999998245E-14  0.12500000000E+03  0.12500000000E+03 0.  0.
        -11    1    3    3    0    0 -0.10915277913E+02 -0.34669270411E+02 -0.27249640119E+01  0.36448964757E+02  0.51100000000E-03 0.  1.
         23    2    1    0    0    0 -0.12727378160E+02  0.23684803563E+02 -0.11986801705E+02  0.95561258693E+02  0.90913776036E+02 0.  0.
         11    1    3    3    0    0 -0.18121002476E+01  0.58354073973E+02 -0.92618376936E+01  0.59112293936E+02  0.51100000000E-03 0. -1.
         22    1    1    0    0    0  0.12727378160E+02 -0.23684803563E+02  0.11986801705E+02  0.29438741307E+02  0.00000000000E+00 0. -1.
</event>
<event>
 5    1  0.1096978E-009  0.9118800E+02  0.7818608E-02  0.1130116E+00
         25   -1    0    0    0    0  0.00000000000E+00  0.00000000000E+00  0.99999998245E-14  0.12500000000E+03  0.12500000000E+03 0.  0.
        -11    1    3    3    0    0 -0.37949227913E+02 -0.47774002148E+01  0.40286685079E+02  0.55551637662E+02  0.51100000000E-03 0. -1.
         23    2    1    0    0    0 -0.16205609345E+02 -0.22343623457E+02  0.13473987413E+02  0.94285058681E+02  0.89141823351E+02 0.  0.
         11    1    3    3    0    0  0.21743618568E+02 -0.17566223242E+02 -0.26812697666E+02  0.38733421019E+02  0.51100000000E-03 0.  1.
         22    1    1    0    0    0  0.16205609345E+02  0.22343623457E+02 -0.13473987413E+02  0.30714941319E+02  0.00000000000E+00 0. -1.
</event>
<event>
 5    1  0.1096978E-009  0.9118800E+02  0.7818608E-02  0.1130116E+00
         25   -1    0    0    0    0  0.00000000000E+00  0.00000000000E+00  0.99999998245E-14  0.12500000000E+03  0.12500000000E+03 0.  0.
        -11    1    3    3    0    0 -0.38032978143E+02  0.26281849801E+01 -0.67844894236E-01  0.38123737827E+02  0.51100000000E-03 0.  1.
         23    2    1    0    0    0  0.14285414500E+02 -0.59934359895E+01  0.24063786075E+02  0.96380773200E+02  0.92033653084E+02 0.  0.
         11    1    3    3    0    0  0.52318392643E+02 -0.86216209696E+01  0.24131630969E+02  0.58257035372E+02  0.51100000000E-03 0. -1.
         22    1    1    0    0    0 -0.14285414500E+02  0.59934359895E+01 -0.24063786075E+02  0.28619226800E+02  0.00000000000E+00 0. -1.
</event>
<event>
 5    1  0.1096978E-009  0.9118800E+02  0.7818608E-02  0.1130116E+00
         25   -1    0    0    0    0  0.00000000000E+00  0.00000000000E+00  0.99999998245E-14  0.12500000000E+03  0.12500000000E+03 0.  0.
        -11    1    3    3    0    0  0.35385458411E+02 -0.45272789935E+02 -0.23174888030E+02  0.61958305423E+02  0.51100000000E-03 0. -1.
         23    2    1    0    0    0  0.11219098702E+02 -0.23188392442E+02 -0.12296688056E+02  0.96455679079E+02  0.92135333991E+02 0.  0.
         11    1    3    3    0    0 -0.24166359709E+02  0.22084397493E+02  0.10878199974E+02  0.34497373656E+02  0.51100000000E-03 0.  1.
         22    1    1    0    0    0 -0.11219098702E+02  0.23188392442E+02  0.12296688056E+02  0.28544320921E+02  0.00000000000E+00 0. -1.
</event>
<event>
 5    1  0.1096978E-009  0.9118800E+02  0.7818608E-02  0.1130116E+00
         25   -1    0    0    0    0  0.00000000000E+00  0.00000000000E+00  0.99999998245E-14  0.12500000000E+03  0.12500000000E+03 0.  0.
        -11    1    3    3    0    0 -0.15672255176E+02 -0.15793136062E+02 -0.23750896911E+02  0.32544551515E+02  0.51100000000E-03 0.  1.
         23    2    1    0    0    0  0.28287856762E+02  0.70869933171E+01  0.11806069743E+02  0.93538728613E+02  0.88089058080E+02 0.  0.
         11    1    3    3    0    0  0.43960111938E+02  0.22880129379E+02  0.35556966654E+02  0.60994177098E+02  0.51100000000E-03 0. -1.
         22    1    1    0    0    0 -0.28287856762E+02 -0.70869933171E+01 -0.11806069743E+02  0.31461271387E+02  0.00000000000E+00 0. -1.
</event>
<event>
 5    1  0.1096978E-009  0.9118800E+02  0.7818608E-02  0.1130116E+00
         25   -1    0    0    0    0  0.00000000000E+00  0.00000000000E+00  0.99999998245E-14  0.12500000000E+03  0.12500000000E+03 0.  0.
        -11    1    3    3    0    0 -0.41640389842E+02 -0.35204325582E+01  0.10432015047E+02  0.43071364614E+02  0.51100000000E-03 0.  1.
         23    2    1    0    0    0 -0.78554293047E+01  0.62957191434E+01 -0.28041791088E+02  0.95205941926E+02  0.90423920959E+02 0.  0.
         11    1    3    3    0    0  0.33784960537E+02  0.98161517016E+01 -0.38473806135E+02  0.52134577312E+02  0.51100000000E-03 0. -1.
         22    1    1    0    0    0  0.78554293047E+01 -0.62957191434E+01  0.28041791088E+02  0.29794058074E+02  0.00000000000E+00 0. -1.
</event>
<event>
 5    1  0.1096978E-009  0.9118800E+02  0.7818608E-02  0.1130116E+00
         25   -1    0    0    0    0  0.00000000000E+00  0.00000000000E+00  0.99999998245E-14  0.12500000000E+03  0.12500000000E+03 0.  0.
        -11    1    3    3    0    0 -0.40860648529E+02  0.13245490707E+02  0.30992402249E+02  0.52967580837E+02  0.51100000000E-03 0.  1.
         23    2    1    0    0    0 -0.13211818033E+02 -0.17189014355E+02  0.19938138729E+02  0.95545904763E+02  0.90892663020E+02 0.  0.
         11    1    3    3    0    0  0.27648830496E+02 -0.30434505062E+02 -0.11054263519E+02  0.42578323926E+02  0.51100000000E-03 0. -1.
         22    1    1    0    0    0  0.13211818033E+02  0.17189014355E+02 -0.19938138729E+02  0.29454095237E+02  0.00000000000E+00 0. -1.
</event>
<event>
 5    1  0.1096978E-009  0.9118800E+02  0.7818608E-02  0.1130116E+00
         25   -1    0    0    0    0  0.00000000000E+00  0.00000000000E+00  0.99999998245E-14  0.12500000000E+03  0.12500000000E+03 0.  0.
        -11    1    3    3    0    0  0.38307661415E+02 -0.25187671167E+02  0.92749767587E+01  0.46775216687E+02  0.51100000000E-03 0. -1.
         23    2    1    0    0    0  0.72014563385E+01 -0.10726080753E+02 -0.25992328875E+02  0.95973960965E+02  0.91479452563E+02 0.  0.
         11    1    3    3    0    0 -0.31106205077E+02  0.14461590415E+02 -0.35267305634E+02  0.49198744278E+02  0.51100000000E-03 0.  1.
         22    1    1    0    0    0 -0.72014563385E+01  0.10726080753E+02  0.25992328875E+02  0.29026039035E+02  0.00000000000E+00 0. -1.
</event>
<event>
 5    1  0.1096978E-009  0.9118800E+02  0.7818608E-02  0.1130116E+00
         25   -1    0    0    0    0  0.00000000000E+00  0.00000000000E+00  0.99999998245E-14  0.12500000000E+03  0.12500000000E+03 0.  0.
        -11    1    3    3    0    0 -0.21260124886E+02  0.49992598160E+01  0.20933525965E+01  0.21940091938E+02  0.51100000000E-03 0.  1.
         23    2    1    0    0    0  0.38942406388E+02 -0.57129385479E+01 -0.10264196679E+02  0.84324424827E+02  0.73865460174E+02 0.  0.
         11    1    3    3    0    0  0.60202531275E+02 -0.10712198364E+02 -0.12357549276E+02  0.62384332889E+02  0.51100000000E-03 0. -1.
         22    1    1    0    0    0 -0.38942406388E+02  0.57129385479E+01  0.10264196679E+02  0.40675575173E+02  0.00000000000E+00 0. -1.
</event>
<event>
 5    1  0.1096978E-009  0.9118800E+02  0.7818608E-02  0.1130116E+00
         25   -1    0    0    0    0  0.00000000000E+00  0.00000000000E+00  0.99999998245E-14  0.12500000000E+03  0.12500000000E+03 0.  0.
        -11    1    3    3    0    0 -0.39722827864E+01 -0.35239166104E+01  0.50875526191E+02  0.51151893262E+02  0.51100000000E-03 0.  1.
         23    2    1    0    0    0 -0.19776106562E+02  0.17144989686E+02  0.17311851763E+02  0.93619348740E+02  0.88203385337E+02 0.  0.
         11    1    3    3    0    0 -0.15803823775E+02  0.20668906296E+02 -0.33563674428E+02  0.42467455478E+02  0.51100000000E-03 0. -1.
         22    1    1    0    0    0  0.19776106562E+02 -0.17144989686E+02 -0.17311851763E+02  0.31380651260E+02  0.00000000000E+00 0.  1.
</event>
<event>
 5    1  0.1096978E-009  0.9118800E+02  0.7818608E-02  0.1130116E+00
         25   -1    0    0    0    0  0.00000000000E+00  0.00000000000E+00  0.99999998245E-14  0.12500000000E+03  0.12500000000E+03 0.  0.
        -11    1    3    3    0    0  0.38861983748E+02 -0.18445472932E+01  0.23925346897E+02  0.45673606820E+02  0.51100000000E-03 0.  1.
         23    2    1    0    0    0  0.20506628699E+02 -0.93477840304E+01 -0.20632742372E+02  0.94444919495E+02  0.89365708601E+02 0.  0.
         11    1    3    3    0    0 -0.18355355048E+02 -0.75032367372E+01 -0.44558089269E+02  0.48771312675E+02  0.51100000000E-03 0. -1.
         22    1    1    0    0    0 -0.20506628699E+02  0.93477840304E+01  0.20632742372E+02  0.30555080505E+02  0.00000000000E+00 0. -1.
</event>
<event>
 5    1  0.1096978E-009  0.9118800E+02  0.7818608E-02  0.1130116E+00
         25   -1    0    0    0    0  0.00000000000E+00  0.00000000000E+00  0.99999998245E-14  0.12500000000E+03  0.12500000000E+03 0.  0.
        -11    1    3    3    0    0 -0.18676368822E+02 -0.46832414956E+02  0.14344476857E+02  0.52419899461E+02  0.51100000000E-03 0.  1.
         23    2    1    0    0    0  0.56413966908E+01 -0.27729168690E+02 -0.13147708212E+02  0.93797525995E+02  0.88455534019E+02 0.  0.
         11    1    3    3    0    0  0.24317765512E+02  0.19103246266E+02 -0.27492185068E+02  0.41377626533E+02  0.51100000000E-03 0. -1.
         22    1    1    0    0    0 -0.56413966908E+01  0.27729168690E+02  0.13147708212E+02  0.31202474005E+02  0.00000000000E+00 0.  1.
</event>
<event>
 5    1  0.1096978E-009  0.9118800E+02  0.7818608E-02  0.1130116E+00
         25   -1    0    0    0    0  0.00000000000E+00  0.00000000000E+00  0.99999998245E-14  0.12500000000E+03  0.12500000000E+03 0.  0.
        -11    1    3    3    0    0  0.40137751072E+01 -0.36905882526E+02  0.64417324736E+01  0.37678249337E+02  0.51100000000E-03 0.  1.
         23    2    1    0    0    0 -0.43215035669E+01  0.18846585921E+01 -0.31840806244E+02  0.92812047698E+02  0.87051777263E+02 0.  0.
         11    1    3    3    0    0 -0.83352786741E+01  0.38790541118E+02 -0.38282538718E+02  0.55133798361E+02  0.51100000000E-03 0. -1.
         22    1    1    0    0    0  0.43215035669E+01 -0.18846585921E+01  0.31840806244E+02  0.32187952302E+02  0.00000000000E+00 0. -1.
</event>
<event>
 5    1  0.1096978E-009  0.9118800E+02  0.7818608E-02  0.1130116E+00
         25   -1    0    0    0    0  0.00000000000E+00  0.00000000000E+00  0.99999998245E-14  0.12500000000E+03  0.12500000000E+03 0.  0.
        -11    1    3    3    0    0 -0.17443084361E+01  0.19442585843E+01 -0.43327799453E+02  0.43406462181E+02  0.51100000000E-03 0.  1.
         23    2    1    0    0    0 -0.24059276194E+02 -0.16262751888E+02  0.62342763107E+00  0.95953235430E+02  0.91451128247E+02 0.  0.
         11    1    3    3    0    0 -0.22314967758E+02 -0.18207010473E+02  0.43951227085E+02  0.52546773249E+02  0.51100000000E-03 0. -1.
         22    1    1    0    0    0  0.24059276194E+02  0.16262751888E+02 -0.62342763107E+00  0.29046764570E+02  0.00000000000E+00 0. -1.
</event>
<event>
 5    1  0.1096978E-009  0.9118800E+02  0.7818608E-02  0.1130116E+00
         25   -1    0    0    0    0  0.00000000000E+00  0.00000000000E+00  0.99999998245E-14  0.12500000000E+03  0.12500000000E+03 0.  0.
        -11    1    3    3    0    0  0.26091448683E+02  0.40333598064E+01  0.31916888048E+02  0.41421243687E+02  0.51100000000E-03 0. -1.
         23    2    1    0    0    0 -0.21382399451E+02 -0.14970199055E+02  0.10275864355E+02  0.96948132784E+02  0.92801040921E+02 0.  0.
         11    1    3    3    0    0 -0.47473848134E+02 -0.19003558862E+02 -0.21641023692E+02  0.55526889097E+02  0.51100000000E-03 0.  1.
         22    1    1    0    0    0  0.21382399451E+02  0.14970199055E+02 -0.10275864355E+02  0.28051867216E+02  0.00000000000E+00 0.  1.
</event>
<event>
 5    1  0.1096978E-009  0.9118800E+02  0.7818608E-02  0.1130116E+00
         25   -1    0    0    0    0  0.00000000000E+00  0.00000000000E+00  0.99999998245E-14  0.12500000000E+03  0.12500000000E+03 0.  0.
        -11    1    3    3    0    0 -0.22645384972E+01 -0.33212408583E+02 -0.44969952766E+01  0.33591891660E+02  0.51100000000E-03 0.  1.
         23    2    1    0    0    0 -0.96041309849E+01  0.28018175121E+02 -0.20921008035E+01  0.95307671784E+02  0.90564440848E+02 0.  0.
         11    1    3    3    0    0 -0.73395924878E+01  0.61230583704E+02  0.24048944731E+01  0.61715780124E+02  0.51100000000E-03 0. -1.
         22    1    1    0    0    0  0.96041309849E+01 -0.28018175121E+02  0.20921008035E+01  0.29692328216E+02  0.00000000000E+00 0. -1.
</event>
<event>
 5    1  0.1096978E-009  0.9118800E+02  0.7818608E-02  0.1130116E+00
         25   -1    0    0    0    0  0.00000000000E+00  0.00000000000E+00  0.99999998245E-14  0.12500000000E+03  0.12500000000E+03 0.  0.
        -11    1    3    3    0    0 -0.19123326812E+02  0.45731622589E+02 -0.33450858338E+02  0.59800023886E+02  0.51100000000E-03 0. -1.
         23    2    1    0    0    0  0.45724276675E+01  0.21061587986E+02 -0.15679898839E+02  0.98347480216E+02  0.94667154040E+02 0.  0.
         11    1    3    3    0    0  0.23695754480E+02 -0.24670034604E+02  0.17770959499E+02  0.38547456330E+02  0.51100000000E-03 0.  1.
         22    1    1    0    0    0 -0.45724276675E+01 -0.21061587986E+02  0.15679898839E+02  0.26652519784E+02  0.00000000000E+00 0. -1.
</event>
<event>
 5    1  0.1096978E-009  0.9118800E+02  0.7818608E-02  0.1130116E+00
         25   -1    0    0    0    0  0.00000000000E+00  0.00000000000E+00  0.99999998245E-14  0.12500000000E+03  0.12500000000E+03 0.  0.
        -11    1    3    3    0    0 -0.14687299287E+02  0.14106569388E+02  0.62956915073E+01  0.21315435535E+02  0.51100000000E-03 0. -1.
         23    2    1    0    0    0  0.30726380527E+02 -0.25359927212E+02 -0.10532793943E+02  0.83791067513E+02  0.72957294894E+02 0.  0.
         11    1    3    3    0    0  0.45413679814E+02 -0.39466496600E+02 -0.16828485451E+02  0.62475631977E+02  0.51100000000E-03 0.  1.
         22    1    1    0    0    0 -0.30726380527E+02  0.25359927212E+02  0.10532793943E+02  0.41208932487E+02  0.00000000000E+00 0.  1.
</event>
<event>
 5    1  0.1096978E-009  0.9118800E+02  0.7818608E-02  0.1130116E+00
         25   -1    0    0    0    0  0.00000000000E+00  0.00000000000E+00  0.99999998245E-14  0.12500000000E+03  0.12500000000E+03 0.  0.
        -11    1    3    3    0    0  0.37011569892E+02  0.75349386092E+01  0.22693668329E+02  0.44063978352E+02  0.51100000000E-03 0.  1.
         23    2    1    0    0    0 -0.15055585080E+02 -0.10969145817E+02  0.17289418890E+02  0.99585106579E+02  0.96287468783E+02 0.  0.
         11    1    3    3    0    0 -0.52067154972E+02 -0.18504084426E+02 -0.54042494384E+01  0.55521128227E+02  0.51100000000E-03 0. -1.
         22    1    1    0    0    0  0.15055585080E+02  0.10969145817E+02 -0.17289418890E+02  0.25414893421E+02  0.00000000000E+00 0. -1.
</event>
<event>
 5    1  0.1096978E-009  0.9118800E+02  0.7818608E-02  0.1130116E+00
         25   -1    0    0    0    0  0.00000000000E+00  0.00000000000E+00  0.99999998245E-14  0.12500000000E+03  0.12500000000E+03 0.  0.
        -11    1    3    3    0    0  0.15854035818E+02 -0.55956808140E+02  0.12885134996E+02  0.59569635999E+02  0.51100000000E-03 0.  1.
         23    2    1    0    0    0  0.19813801324E+02 -0.23424616937E+02  0.14305684715E+01  0.94286062972E+02  0.89143231617E+02 0.  0.
         11    1    3    3    0    0  0.39597655066E+01  0.32532191202E+02 -0.11454566525E+02  0.34716426974E+02  0.51100000000E-03 0. -1.
         22    1    1    0    0    0 -0.19813801324E+02  0.23424616937E+02 -0.14305684715E+01  0.30713937028E+02  0.00000000000E+00 0.  1.
</event>
<event>
 5    1  0.1096978E-009  0.9118800E+02  0.7818608E-02  0.1130116E+00
         25   -1    0    0    0    0  0.00000000000E+00  0.00000000000E+00  0.99999998245E-14  0.12500000000E+03  0.12500000000E+03 0.  0.
        -11    1    3    3    0    0  0.30269227786E+02  0.15701709642E+02 -0.47514924914E+00  0.34102721350E+02  0.51100000000E-03 0.  1.
         23    2    1    0    0    0 -0.29611979768E+02  0.63195283725E+01 -0.62895762276E+00  0.94714667373E+02  0.89742224417E+02 0.  0.
         11    1    3    3    0    0 -0.59881207553E+02 -0.93821812696E+01 -0.15380837363E+00  0.60611946023E+02  0.51100000000E-03 0. -1.
         22    1    1    0    0    0  0.29611979768E+02 -0.63195283725E+01  0.62895762276E+00  0.30285332627E+02  0.00000000000E+00 0. -1.
</event>
<event>
 5    1  0.1096978E-009  0.9118800E+02  0.7818608E-02  0.1130116E+00
         25   -1    0    0    0    0  0.00000000000E+00  0.00000000000E+00  0.99999998245E-14  0.12500000000E+03  0.12500000000E+03 0.  0.
        -11    1    3    3    0    0 -0.45492990478E+01  0.91108118327E+01  0.53119462817E+02  0.54086785302E+02  0.51100000000E-03 0. -1.
         23    2    1    0    0    0 -0.23823652022E+02  0.24117338947E+01  0.16789685831E+02  0.95754890899E+02  0.91179617923E+02 0.  0.
         11    1    3    3    0    0 -0.19274352975E+02 -0.66990779381E+01 -0.36329776987E+02  0.41668105596E+02  0.51100000000E-03 0.  1.
         22    1    1    0    0    0  0.23823652022E+02 -0.24117338947E+01 -0.16789685831E+02  0.29245109101E+02  0.00000000000E+00 0. -1.
</event>
<event>
 5    1  0.1096978E-009  0.9118800E+02  0.7818608E-02  0.1130116E+00
         25   -1    0    0    0    0  0.00000000000E+00  0.00000000000E+00  0.99999998245E-14  0.12500000000E+03  0.12500000000E+03 0.  0.
        -11    1    3    3    0    0  0.41804007985E+02  0.65815602096E+01  0.21024364270E+02  0.47253739657E+02  0.51100000000E-03 0.  1.
         23    2    1    0    0    0  0.15615768077E+02 -0.25875835371E+02 -0.16654377964E+01  0.94731456066E+02  0.89765605978E+02 0.  0.
         11    1    3    3    0    0 -0.26188239908E+02 -0.32457395581E+02 -0.22689802066E+02  0.47477716409E+02  0.51100000000E-03 0. -1.
         22    1    1    0    0    0 -0.15615768077E+02  0.25875835371E+02  0.16654377964E+01  0.30268543934E+02  0.00000000000E+00 0.  1.
</event>
<event>
 5    1  0.1096978E-009  0.9118800E+02  0.7818608E-02  0.1130116E+00
         25   -1    0    0    0    0  0.00000000000E+00  0.00000000000E+00  0.99999998245E-14  0.12500000000E+03  0.12500000000E+03 0.  0.
        -11    1    3    3    0    0 -0.12886930254E+02 -0.34335874104E+02 -0.15136887765E+02  0.39675566705E+02  0.51100000000E-03 0.  1.
         23    2    1    0    0    0  0.10779042515E+02  0.15079236563E+02 -0.23467592861E+02  0.95095166820E+02  0.90270658051E+02 0.  0.
         11    1    3    3    0    0  0.23665972768E+02  0.49415110667E+02 -0.83307050950E+01  0.55419600115E+02  0.51100000000E-03 0. -1.
         22    1    1    0    0    0 -0.10779042515E+02 -0.15079236563E+02  0.23467592861E+02  0.29904833180E+02  0.00000000000E+00 0. -1.
</event>
<event>
 5    1  0.1096978E-009  0.9118800E+02  0.7818608E-02  0.1130116E+00
         25   -1    0    0    0    0  0.00000000000E+00  0.00000000000E+00  0.99999998245E-14  0.12500000000E+03  0.12500000000E+03 0.  0.
        -11    1    3    3    0    0  0.38014149575E+02  0.41615291763E+02 -0.25287933548E+02  0.61776918504E+02  0.51100000000E-03 0.  1.
         23    2    1    0    0    0  0.11689262732E+02  0.20338460057E+02 -0.15007415100E+02  0.97151942102E+02  0.93075160626E+02 0.  0.
         11    1    3    3    0    0 -0.26324886844E+02 -0.21276831706E+02  0.10280518447E+02  0.35375023598E+02  0.51100000000E-03 0. -1.
         22    1    1    0    0    0 -0.11689262732E+02 -0.20338460057E+02  0.15007415100E+02  0.27848057898E+02  0.00000000000E+00 0.  1.
</event>
<event>
 5    1  0.1096978E-009  0.9118800E+02  0.7818608E-02  0.1130116E+00
         25   -1    0    0    0    0  0.00000000000E+00  0.00000000000E+00  0.99999998245E-14  0.12500000000E+03  0.12500000000E+03 0.  0.
        -11    1    3    3    0    0  0.52725337230E+02  0.27329462306E+02 -0.17710696647E+02  0.61972005551E+02  0.51100000000E-03 0. -1.
         23    2    1    0    0    0  0.20918405305E+02  0.14596953450E+02 -0.12385790886E+02  0.96644073875E+02  0.92390575649E+02 0.  0.
         11    1    3    3    0    0 -0.31806931926E+02 -0.12732508855E+02  0.53249057613E+01  0.34672068325E+02  0.51100000000E-03 0.  1.
         22    1    1    0    0    0 -0.20918405305E+02 -0.14596953450E+02  0.12385790886E+02  0.28355926125E+02  0.00000000000E+00 0. -1.
</event>
<event>
 5    1  0.1096978E-009  0.9118800E+02  0.7818608E-02  0.1130116E+00
         25   -1    0    0    0    0  0.00000000000E+00  0.00000000000E+00  0.99999998245E-14  0.12500000000E+03  0.12500000000E+03 0.  0.
        -11    1    3    3    0    0  0.48547534200E+02 -0.85367726027E+00  0.23714668265E+02  0.54036814608E+02  0.51100000000E-03 0.  1.
         23    2    1    0    0    0  0.24623445398E+02 -0.14058862183E+02 -0.76460387888E+01  0.95632882704E+02  0.91012200698E+02 0.  0.
         11    1    3    3    0    0 -0.23924088803E+02 -0.13205184922E+02 -0.31360707054E+02  0.41596068096E+02  0.51100000000E-03 0. -1.
         22    1    1    0    0    0 -0.24623445398E+02  0.14058862183E+02  0.76460387888E+01  0.29367117296E+02  0.00000000000E+00 0. -1.
</event>
<event>
 5    1  0.1096978E-009  0.9118800E+02  0.7818608E-02  0.1130116E+00
         25   -1    0    0    0    0  0.00000000000E+00  0.00000000000E+00  0.99999998245E-14  0.12500000000E+03  0.12500000000E+03 0.  0.
        -11    1    3    3    0    0  0.22585856890E+02  0.18720307932E+02 -0.25676629307E+02  0.38985383842E+02  0.51100000000E-03 0. -1.
         23    2    1    0    0    0 -0.28189945187E+02  0.65377840857E+00 -0.86095411692E+01  0.95517384190E+02  0.90853431677E+02 0.  0.
         11    1    3    3    0    0 -0.50775802077E+02 -0.18066529523E+02  0.17067088137E+02  0.56532000348E+02  0.51100000000E-03 0.  1.
         22    1    1    0    0    0  0.28189945187E+02 -0.65377840857E+00  0.86095411692E+01  0.29482615810E+02  0.00000000000E+00 0.  1.
</event>
<event>
 5    1  0.1096978E-009  0.9118800E+02  0.7818608E-02  0.1130116E+00
         25   -1    0    0    0    0  0.00000000000E+00  0.00000000000E+00  0.99999998245E-14  0.12500000000E+03  0.12500000000E+03 0.  0.
        -11    1    3    3    0    0 -0.52418013219E+02 -0.15366643194E+02 -0.22316096576E+02  0.59006694531E+02  0.51100000000E-03 0.  1.
         23    2    1    0    0    0 -0.29987355341E+02 -0.22151982977E+02 -0.68253007555E+01  0.87098330372E+02  0.78419274372E+02 0.  0.
         11    1    3    3    0    0  0.22430657877E+02 -0.67853397832E+01  0.15490795821E+02  0.28091635841E+02  0.51100000000E-03 0. -1.
         22    1    1    0    0    0  0.29987355341E+02  0.22151982977E+02  0.68253007555E+01  0.37901669628E+02  0.00000000000E+00 0.  1.
</event>
<event>
 5    1  0.1096978E-009  0.9118800E+02  0.7818608E-02  0.1130116E+00
         25   -1    0    0    0    0  0.00000000000E+00  0.00000000000E+00  0.99999998245E-14  0.12500000000E+03  0.12500000000E+03 0.  0.
        -11    1    3    3    0    0 -0.26882711767E+02 -0.14415371151E+02 -0.27129484003E+02  0.40822690013E+02  0.51100000000E-03 0.  1.
         23    2    1    0    0    0  0.25094926009E+02 -0.78889132134E+01 -0.15443374947E+02  0.94496097089E+02  0.89437264450E+02 0.  0.
         11    1    3    3    0    0  0.51977637776E+02  0.65264579379E+01  0.11686109056E+02  0.53673407076E+02  0.51100000000E-03 0. -1.
         22    1    1    0    0    0 -0.25094926009E+02  0.78889132134E+01  0.15443374947E+02  0.30503902911E+02  0.00000000000E+00 0. -1.
</event>
<event>
 5    1  0.1096978E-009  0.9118800E+02  0.7818608E-02  0.1130116E+00
         25   -1    0    0    0    0  0.00000000000E+00  0.00000000000E+00  0.99999998245E-14  0.12500000000E+03  0.12500000000E+03 0.  0.
        -11    1    3    3    0    0 -0.42070879202E+01  0.35251062147E+02 -0.29055440309E+02  0.45875435508E+02  0.51100000000E-03 0.  1.
         23    2    1    0    0    0  0.23563683073E+02  0.12920568990E+02  0.76754236620E+01  0.97051826690E+02  0.92940608307E+02 0.  0.
         11    1    3    3    0    0  0.27770770993E+02 -0.22330493157E+02  0.36730863971E+02  0.51176391183E+02  0.51100000000E-03 0. -1.
         22    1    1    0    0    0 -0.23563683073E+02 -0.12920568990E+02 -0.76754236620E+01  0.27948173310E+02  0.00000000000E+00 0.  1.
</event>
<event>
 5    1  0.1096978E-009  0.9118800E+02  0.7818608E-02  0.1130116E+00
         25   -1    0    0    0    0  0.00000000000E+00  0.00000000000E+00  0.99999998245E-14  0.12500000000E+03  0.12500000000E+03 0.  0.
        -11    1    3    3    0    0 -0.31280053172E+02 -0.25529824108E+00  0.49708522341E+02  0.58731968273E+02  0.51100000000E-03 0. -1.
         23    2    1    0    0    0 -0.49786615111E+01 -0.12263012016E+02  0.24777314685E+02  0.96909363533E+02  0.92748805292E+02 0.  0.
         11    1    3    3    0    0  0.26301391661E+02 -0.12007713775E+02 -0.24931207656E+02  0.38177395260E+02  0.51100000000E-03 0.  1.
         22    1    1    0    0    0  0.49786615111E+01  0.12263012016E+02 -0.24777314685E+02  0.28090636467E+02  0.00000000000E+00 0. -1.
</event>
<event>
 5    1  0.1096978E-009  0.9118800E+02  0.7818608E-02  0.1130116E+00
         25   -1    0    0    0    0  0.00000000000E+00  0.00000000000E+00  0.99999998245E-14  0.12500000000E+03  0.12500000000E+03 0.  0.
        -11    1    3    3    0    0 -0.23831148295E+02 -0.48799889313E+02  0.29303418514E+02  0.61709344210E+02  0.51100000000E-03 0.  1.
         23    2    1    0    0    0 -0.14303363517E+02 -0.16165463050E+02  0.15618117754E+02  0.98357289821E+02  0.94680105910E+02 0.  0.
         11    1    3    3    0    0  0.95277847775E+01  0.32634426263E+02 -0.13685300760E+02  0.36647945610E+02  0.51100000000E-03 0. -1.
         22    1    1    0    0    0  0.14303363517E+02  0.16165463050E+02 -0.15618117754E+02  0.26642710179E+02  0.00000000000E+00 0.  1.
</event>
<event>
 5    1  0.1096978E-009  0.9118800E+02  0.7818608E-02  0.1130116E+00
         25   -1    0    0    0    0  0.00000000000E+00  0.00000000000E+00  0.99999998245E-14  0.12500000000E+03  0.12500000000E+03 0.  0.
        -11    1    3    3    0    0  0.20920482617E+02 -0.35314435000E+02 -0.19616087022E+02  0.45492491498E+02  0.51100000000E-03 0.  1.
         23    2    1    0    0    0 -0.22937905765E+02 -0.11120242264E+02 -0.14058682482E+02  0.95888939181E+02  0.91363202633E+02 0.  0.
         11    1    3    3    0    0 -0.43858388382E+02  0.24194192736E+02  0.55574045406E+01  0.50396447684E+02  0.51100000000E-03 0. -1.
         22    1    1    0    0    0  0.22937905765E+02  0.11120242264E+02  0.14058682482E+02  0.29111060819E+02  0.00000000000E+00 0. -1.
</event>
<event>
 5    1  0.1096978E-009  0.9118800E+02  0.7818608E-02  0.1130116E+00
         25   -1    0    0    0    0  0.00000000000E+00  0.00000000000E+00  0.99999998245E-14  0.12500000000E+03  0.12500000000E+03 0.  0.
        -11    1    3    3    0    0  0.46081101458E+02 -0.18095129172E+02  0.33706429828E+02  0.59891777594E+02  0.51100000000E-03 0. -1.
         23    2    1    0    0    0  0.27935860107E+02 -0.98326753488E+01  0.48143693743E+01  0.94995468060E+02  0.90132496998E+02 0.  0.
         11    1    3    3    0    0 -0.18145241351E+02  0.82624538230E+01 -0.28892060453E+02  0.35103690466E+02  0.51100000000E-03 0.  1.
         22    1    1    0    0    0 -0.27935860107E+02  0.98326753488E+01 -0.48143693743E+01  0.30004531940E+02  0.00000000000E+00 0. -1.
</event>
<event>
 5    1  0.1096978E-009  0.9118800E+02  0.7818608E-02  0.1130116E+00
         25   -1    0    0    0    0  0.00000000000E+00  0.00000000000E+00  0.99999998245E-14  0.12500000000E+03  0.12500000000E+03 0.  0.
        -11    1    3    3    0    0  0.37117035614E+02 -0.31409137596E+02  0.35659642361E+02  0.60297747477E+02  0.51100000000E-03 0.  1.
         23    2    1    0    0    0  0.22364469349E+02 -0.15648580724E+02  0.58811859392E+01  0.97078038823E+02  0.92975855499E+02 0.  0.
         11    1    3    3    0    0 -0.14752566264E+02  0.15760556873E+02 -0.29778456422E+02  0.36780291345E+02  0.51100000000E-03 0. -1.
         22    1    1    0    0    0 -0.22364469349E+02  0.15648580724E+02 -0.58811859392E+01  0.27921961177E+02  0.00000000000E+00 0.  1.
</event>
<event>
 5    1  0.1096978E-009  0.9118800E+02  0.7818608E-02  0.1130116E+00
         25   -1    0    0    0    0  0.00000000000E+00  0.00000000000E+00  0.99999998245E-14  0.12500000000E+03  0.12500000000E+03 0.  0.
        -11    1    3    3    0    0 -0.31803527550E+01  0.21870406936E+02 -0.26463989043E+02  0.34478573919E+02  0.51100000000E-03 0. -1.
         23    2    1    0    0    0 -0.13156158261E+02 -0.23687410241E+02  0.12414485999E+02  0.95195682079E+02  0.90409736864E+02 0.  0.
         11    1    3    3    0    0 -0.99758055064E+01 -0.45557817176E+02  0.38878475042E+02  0.60717108160E+02  0.51100000000E-03 0.  1.
         22    1    1    0    0    0  0.13156158261E+02  0.23687410241E+02 -0.12414485999E+02  0.29804317921E+02  0.00000000000E+00 0.  1.
</event>
<event>
 5    1  0.1096978E-009  0.9118800E+02  0.7818608E-02  0.1130116E+00
         25   -1    0    0    0    0  0.00000000000E+00  0.00000000000E+00  0.99999998245E-14  0.12500000000E+03  0.12500000000E+03 0.  0.
        -11    1    3    3    0    0 -0.29289163726E+02 -0.51832410120E+02 -0.14374501461E+02  0.61246062267E+02  0.51100000000E-03 0.  1.
         23    2    1    0    0    0 -0.59767908639E+01 -0.27140301141E+02 -0.99038139574E+01  0.95497398319E+02  0.90825930107E+02 0.  0.
         11    1    3    3    0    0  0.23312372863E+02  0.24692108980E+02  0.44706875033E+01  0.34251336052E+02  0.51100000000E-03 0. -1.
         22    1    1    0    0    0  0.59767908639E+01  0.27140301141E+02  0.99038139574E+01  0.29502601681E+02  0.00000000000E+00 0.  1.
</event>
<event>
 5    1  0.1096978E-009  0.9118800E+02  0.7818608E-02  0.1130116E+00
         25   -1    0    0    0    0  0.00000000000E+00  0.00000000000E+00  0.99999998245E-14  0.12500000000E+03  0.12500000000E+03 0.  0.
        -11    1    3    3    0    0  0.10898780937E+02 -0.53502219037E+02 -0.16183662724E+02  0.56948940351E+02  0.51100000000E-03 0. -1.
         23    2    1    0    0    0  0.15216461231E+02 -0.15278405761E+02 -0.19980644547E+02  0.95602780208E+02  0.90970847264E+02 0.  0.
         11    1    3    3    0    0  0.43176802938E+01  0.38223813275E+02 -0.37969818234E+01  0.38653839857E+02  0.51100000000E-03 0.  1.
         22    1    1    0    0    0 -0.15216461231E+02  0.15278405761E+02  0.19980644547E+02  0.29397219792E+02  0.00000000000E+00 0. -1.
</event>
<event>
 5    1  0.1096978E-009  0.9118800E+02  0.7818608E-02  0.1130116E+00
         25   -1    0    0    0    0  0.00000000000E+00  0.00000000000E+00  0.99999998245E-14  0.12500000000E+03  0.12500000000E+03 0.  0.
        -11    1    3    3    0    0  0.47909746311E+02 -0.17236159061E+02  0.32994287259E+02  0.60671673479E+02  0.51100000000E-03 0.  1.
         23    2    1    0    0    0  0.20809846638E+02  0.12503777247E+01  0.20461288878E+02  0.95789085874E+02  0.91226484468E+02 0.  0.
         11    1    3    3    0    0 -0.27099899673E+02  0.18486536785E+02 -0.12532998381E+02  0.35117412394E+02  0.51100000000E-03 0. -1.
         22    1    1    0    0    0 -0.20809846638E+02 -0.12503777247E+01 -0.20461288878E+02  0.29210914126E+02  0.00000000000E+00 0.  1.
</event>
<event>
 5    1  0.1096978E-009  0.9118800E+02  0.7818608E-02  0.1130116E+00
         25   -1    0    0    0    0  0.00000000000E+00  0.00000000000E+00  0.99999998245E-14  0.12500000000E+03  0.12500000000E+03 0.  0.
        -11    1    3    3    0    0 -0.33113656025E+02 -0.11253362388E+02  0.19981488163E+02  0.40279178863E+02  0.51100000000E-03 0.  1.
         23    2    1    0    0    0  0.17391993506E+02  0.13015587542E+02  0.18714392136E+02  0.96327444651E+02  0.91961193788E+02 0.  0.
         11    1    3    3    0    0  0.50505649532E+02  0.24268949930E+02 -0.12670960269E+01  0.56048265789E+02  0.51100000000E-03 0. -1.
         22    1    1    0    0    0 -0.17391993506E+02 -0.13015587542E+02 -0.18714392136E+02  0.28672555349E+02  0.00000000000E+00 0. -1.
</event>
<event>
 5    1  0.1096978E-009  0.9118800E+02  0.7818608E-02  0.1130116E+00
         25   -1    0    0    0    0  0.00000000000E+00  0.00000000000E+00  0.99999998245E-14  0.12500000000E+03  0.12500000000E+03 0.  0.
        -11    1    3    3    0    0 -0.18280490719E+02  0.57569250943E+02 -0.70235749942E+01  0.60808926984E+02  0.51100000000E-03 0. -1.
         23    2    1    0    0    0  0.17418460668E+01  0.26815325339E+02 -0.24539443375E+00  0.98127041116E+02  0.94375633927E+02 0.  0.
         11    1    3    3    0    0  0.20022336786E+02 -0.30753925604E+02  0.67781805605E+01  0.37318114132E+02  0.51100000000E-03 0.  1.
         22    1    1    0    0    0 -0.17418460668E+01 -0.26815325339E+02  0.24539443375E+00  0.26872958884E+02  0.00000000000E+00 0. -1.
</event>
<event>
 5    1  0.1096978E-009  0.9118800E+02  0.7818608E-02  0.1130116E+00
         25   -1    0    0    0    0  0.00000000000E+00  0.00000000000E+00  0.99999998245E-14  0.12500000000E+03  0.12500000000E+03 0.  0.
        -11    1    3    3    0    0  0.41059822500E+02 -0.29588612300E+01 -0.30492333457E+02  0.51229349824E+02  0.51100000000E-03 0.  1.
         23    2    1    0    0    0  0.27113557231E+02 -0.21525043725E+01  0.11489186756E+02  0.95474084720E+02  0.90793838888E+02 0.  0.
         11    1    3    3    0    0 -0.13946265269E+02  0.80635685746E+00  0.41981520213E+02  0.44244734896E+02  0.51100000000E-03 0. -1.
         22    1    1    0    0    0 -0.27113557231E+02  0.21525043725E+01 -0.11489186756E+02  0.29525915280E+02  0.00000000000E+00 0.  1.
</event>
<event>
 5    1  0.1096978E-009  0.9118800E+02  0.7818608E-02  0.1130116E+00
         25   -1    0    0    0    0  0.00000000000E+00  0.00000000000E+00  0.99999998245E-14  0.12500000000E+03  0.12500000000E+03 0.  0.
        -11    1    3    3    0    0 -0.36922348394E+02 -0.33453000900E+02 -0.28522967879E+02  0.57410127826E+02  0.51100000000E-03 0.  1.
         23    2    1    0    0    0 -0.29384227849E+02 -0.68976010708E+01 -0.35962842373E+01  0.94603569171E+02  0.89587344490E+02 0.  0.
         11    1    3    3    0    0  0.75381205453E+01  0.26555399829E+02  0.24926683642E+02  0.37193441345E+02  0.51100000000E-03 0. -1.
         22    1    1    0    0    0  0.29384227849E+02  0.68976010708E+01  0.35962842373E+01  0.30396430829E+02  0.00000000000E+00 0.  1.
</event>
<event>
 5    1  0.1096978E-009  0.9118800E+02  0.7818608E-02  0.1130116E+00
         25   -1    0    0    0    0  0.00000000000E+00  0.00000000000E+00  0.99999998245E-14  0.12500000000E+03  0.12500000000E+03 0.  0.
        -11    1    3    3    0    0 -0.15821787624E+01  0.18687908172E+02  0.35071030833E+02  0.39770823545E+02  0.51100000000E-03 0.  1.
         23    2    1    0    0    0 -0.23045151728E+02  0.31306319116E+01 -0.15626926409E+02  0.96980708372E+02  0.92844908816E+02 0.  0.
         11    1    3    3    0    0 -0.21462972966E+02 -0.15557276260E+02 -0.50697957242E+02  0.57209884827E+02  0.51100000000E-03 0. -1.
         22    1    1    0    0    0  0.23045151728E+02 -0.31306319116E+01  0.15626926409E+02  0.28019291628E+02  0.00000000000E+00 0. -1.
</event>
